<?xml version="1.0" encoding="UTF-8"?>

<!-- generated on 2022-12-08 15:46:20 by Eclipse SUMO GUI Version 1.15.0
<configuration xmlns:xsi="http://www.w3.org/2001/XMLSchema-instance" xsi:noNamespaceSchemaLocation="http://sumo.dlr.de/xsd/sumoConfiguration.xsd">

    <input>
        <net-file value="simple_uvar.net.xml"/>
        <route-files value="simple_uvar.rou.xml"/>
        <additional-files value="simple_uvar_parking_lots.xml"/>
    </input>

    <output>
        <tripinfo-output value="tripinfo.xml"/>
    </output>

    <time>
        <begin value="0"/>
        <end value="10000"/>
    </time>

    <traci_server>
        <remote-port value="62491"/>
    </traci_server>

    <gui_only>
        <gui-settings-file value="simple_uvar.settings.xml"/>
    </gui_only>

</configuration>
-->

<tripinfos xmlns:xsi="http://www.w3.org/2001/XMLSchema-instance" xsi:noNamespaceSchemaLocation="http://sumo.dlr.de/xsd/tripinfo_file.xsd">
    <tripinfo id="vehicle5" depart="9.00" departLane="E40_0" departPos="5.10" departSpeed="0.00" departDelay="9.00" arrival="276.00" arrivalLane="E9_0" arrivalPos="679.28" arrivalSpeed="15.01" duration="267.00" routeLength="3336.61" waitingTime="0.00" waitingCount="0" stopTime="0.00" timeLoss="41.00" rerouteNo="1" devices="tripinfo_vehicle5 routing_vehicle5" vType="evehicle" speedFactor="1.08" vaporized=""/>
    <tripinfo id="vehicle2" depart="3.00" departLane="E40_0" departPos="5.10" departSpeed="0.00" departDelay="3.00" arrival="291.00" arrivalLane="E9_0" arrivalPos="679.28" arrivalSpeed="12.50" duration="288.00" routeLength="3336.61" waitingTime="0.00" waitingCount="0" stopTime="0.00" timeLoss="26.91" rerouteNo="1" devices="tripinfo_vehicle2 routing_vehicle2" vType="evehicle" speedFactor="0.94" vaporized=""/>
    <tripinfo id="vehicle11" depart="21.00" departLane="E40_0" departPos="5.10" departSpeed="0.00" departDelay="21.00" arrival="335.00" arrivalLane="E9_0" arrivalPos="679.28" arrivalSpeed="11.35" duration="314.00" routeLength="3336.61" waitingTime="0.00" waitingCount="0" stopTime="0.00" timeLoss="37.71" rerouteNo="1" devices="tripinfo_vehicle11 routing_vehicle11" vType="evehicle" speedFactor="0.89" vaporized=""/>
    <tripinfo id="vehicle17" depart="33.00" departLane="E40_0" departPos="5.10" departSpeed="0.00" departDelay="33.00" arrival="336.00" arrivalLane="E9_1" arrivalPos="679.28" arrivalSpeed="13.05" duration="303.00" routeLength="3332.35" waitingTime="0.00" waitingCount="0" stopTime="0.00" timeLoss="64.38" rerouteNo="1" devices="tripinfo_vehicle17 routing_vehicle17" vType="evehicle" speedFactor="1.03" vaporized=""/>
    <tripinfo id="vehicle8" depart="15.00" departLane="E40_0" departPos="5.10" departSpeed="0.00" departDelay="15.00" arrival="337.00" arrivalLane="E9_0" arrivalPos="679.28" arrivalSpeed="11.45" duration="322.00" routeLength="3336.61" waitingTime="0.00" waitingCount="0" stopTime="0.00" timeLoss="28.19" rerouteNo="1" devices="tripinfo_vehicle8 routing_vehicle8" vType="evehicle" speedFactor="0.83" vaporized=""/>
    <tripinfo id="vehicle29" depart="57.00" departLane="E40_0" departPos="5.10" departSpeed="0.00" departDelay="57.00" arrival="337.00" arrivalLane="E9_1" arrivalPos="679.28" arrivalSpeed="14.86" duration="280.00" routeLength="3327.83" waitingTime="0.00" waitingCount="0" stopTime="0.00" timeLoss="69.10" rerouteNo="1" devices="tripinfo_vehicle29 routing_vehicle29" vType="evehicle" speedFactor="1.16" vaporized=""/>
    <tripinfo id="vehicle20" depart="39.00" departLane="E40_0" departPos="5.10" departSpeed="0.00" departDelay="39.00" arrival="339.00" arrivalLane="E9_0" arrivalPos="679.28" arrivalSpeed="14.67" duration="300.00" routeLength="3332.35" waitingTime="0.00" waitingCount="0" stopTime="0.00" timeLoss="82.24" rerouteNo="1" devices="tripinfo_vehicle20 routing_vehicle20" vType="evehicle" speedFactor="1.12" vaporized=""/>
    <tripinfo id="vehicle14" depart="27.00" departLane="E40_0" departPos="5.10" departSpeed="0.00" departDelay="27.00" arrival="345.00" arrivalLane="E9_0" arrivalPos="679.28" arrivalSpeed="11.23" duration="318.00" routeLength="3336.61" waitingTime="0.00" waitingCount="0" stopTime="0.00" timeLoss="32.93" rerouteNo="1" devices="tripinfo_vehicle14 routing_vehicle14" vType="evehicle" speedFactor="0.86" vaporized=""/>
    <tripinfo id="vehicle32" depart="63.00" departLane="E40_0" departPos="5.10" departSpeed="0.00" departDelay="63.00" arrival="345.00" arrivalLane="E9_1" arrivalPos="679.28" arrivalSpeed="13.48" duration="282.00" routeLength="3336.61" waitingTime="0.00" waitingCount="0" stopTime="0.00" timeLoss="40.59" rerouteNo="1" devices="tripinfo_vehicle32 routing_vehicle32" vType="evehicle" speedFactor="1.01" vaporized=""/>
    <tripinfo id="vehicle23" depart="44.00" departLane="E40_0" departPos="5.10" departSpeed="0.00" departDelay="44.00" arrival="346.00" arrivalLane="E9_0" arrivalPos="679.28" arrivalSpeed="12.00" duration="302.00" routeLength="3336.61" waitingTime="0.00" waitingCount="0" stopTime="0.00" timeLoss="38.96" rerouteNo="1" devices="tripinfo_vehicle23 routing_vehicle23" vType="evehicle" speedFactor="0.93" vaporized=""/>
    <tripinfo id="vehicle26" depart="50.00" departLane="E40_0" departPos="5.10" departSpeed="0.00" departDelay="50.00" arrival="348.00" arrivalLane="E9_1" arrivalPos="679.28" arrivalSpeed="12.36" duration="298.00" routeLength="3336.61" waitingTime="0.00" waitingCount="0" stopTime="0.00" timeLoss="38.42" rerouteNo="1" devices="tripinfo_vehicle26 routing_vehicle26" vType="evehicle" speedFactor="0.94" vaporized=""/>
    <tripinfo id="vehicle1" depart="0.00" departLane="E40_0" departPos="5.10" departSpeed="0.00" departDelay="0.00" arrival="362.00" arrivalLane="E9_0" arrivalPos="679.28" arrivalSpeed="14.22" duration="362.00" routeLength="4833.11" waitingTime="0.00" waitingCount="0" stopTime="0.00" timeLoss="30.48" rerouteNo="1" devices="tripinfo_vehicle1 routing_vehicle1" vType="DEFAULT_VEHTYPE" speedFactor="1.06" vaporized=""/>
    <tripinfo id="vehicle47" depart="93.00" departLane="E40_0" departPos="5.10" departSpeed="0.00" departDelay="93.00" arrival="362.00" arrivalLane="E9_1" arrivalPos="679.28" arrivalSpeed="15.08" duration="269.00" routeLength="3332.09" waitingTime="1.00" waitingCount="1" stopTime="0.00" timeLoss="57.57" rerouteNo="1" devices="tripinfo_vehicle47 routing_vehicle47" vType="evehicle" speedFactor="1.15" vaporized=""/>
    <tripinfo id="vehicle35" depart="69.00" departLane="E40_0" departPos="5.10" departSpeed="0.00" departDelay="69.00" arrival="369.00" arrivalLane="E9_0" arrivalPos="679.28" arrivalSpeed="11.81" duration="300.00" routeLength="3336.61" waitingTime="0.00" waitingCount="0" stopTime="0.00" timeLoss="25.83" rerouteNo="1" devices="tripinfo_vehicle35 routing_vehicle35" vType="evehicle" speedFactor="0.89" vaporized=""/>
    <tripinfo id="vehicle44" depart="87.00" departLane="E40_0" departPos="5.10" departSpeed="0.00" departDelay="87.00" arrival="388.00" arrivalLane="E9_1" arrivalPos="679.28" arrivalSpeed="11.83" duration="301.00" routeLength="3336.61" waitingTime="0.00" waitingCount="0" stopTime="0.00" timeLoss="38.78" rerouteNo="1" devices="tripinfo_vehicle44 routing_vehicle44" vType="evehicle" speedFactor="0.93" vaporized=""/>
    <tripinfo id="vehicle38" depart="75.00" departLane="E40_0" departPos="5.10" departSpeed="0.00" departDelay="75.00" arrival="389.00" arrivalLane="E9_0" arrivalPos="679.28" arrivalSpeed="11.16" duration="314.00" routeLength="3332.35" waitingTime="0.00" waitingCount="0" stopTime="0.00" timeLoss="34.00" rerouteNo="1" devices="tripinfo_vehicle38 routing_vehicle38" vType="evehicle" speedFactor="0.87" vaporized=""/>
    <tripinfo id="vehicle41" depart="81.00" departLane="E40_0" departPos="5.10" departSpeed="0.00" departDelay="81.00" arrival="390.00" arrivalLane="E9_0" arrivalPos="679.28" arrivalSpeed="12.90" duration="309.00" routeLength="3336.61" waitingTime="5.00" waitingCount="2" stopTime="0.00" timeLoss="51.52" rerouteNo="1" devices="tripinfo_vehicle41 routing_vehicle41" vType="evehicle" speedFactor="0.95" vaporized=""/>
    <tripinfo id="vehicle53" depart="105.00" departLane="E40_0" departPos="5.10" departSpeed="0.00" departDelay="105.00" arrival="390.00" arrivalLane="E9_1" arrivalPos="679.28" arrivalSpeed="13.58" duration="285.00" routeLength="3336.61" waitingTime="0.00" waitingCount="0" stopTime="0.00" timeLoss="45.54" rerouteNo="1" devices="tripinfo_vehicle53 routing_vehicle53" vType="evehicle" speedFactor="1.02" vaporized=""/>
    <tripinfo id="vehicle50" depart="99.00" departLane="E40_0" departPos="5.10" departSpeed="0.00" departDelay="99.00" arrival="391.00" arrivalLane="E9_1" arrivalPos="679.28" arrivalSpeed="16.07" duration="292.00" routeLength="3332.35" waitingTime="1.00" waitingCount="1" stopTime="0.00" timeLoss="83.61" rerouteNo="1" devices="tripinfo_vehicle50 routing_vehicle50" vType="evehicle" speedFactor="1.17" vaporized=""/>
    <tripinfo id="vehicle56" depart="111.00" departLane="E40_0" departPos="5.10" departSpeed="0.00" departDelay="111.00" arrival="392.00" arrivalLane="E9_0" arrivalPos="679.28" arrivalSpeed="15.26" duration="281.00" routeLength="3332.35" waitingTime="0.00" waitingCount="0" stopTime="0.00" timeLoss="73.79" rerouteNo="1" devices="tripinfo_vehicle56 routing_vehicle56" vType="evehicle" speedFactor="1.18" vaporized=""/>
    <tripinfo id="vehicle4" depart="6.00" departLane="E40_0" departPos="5.10" departSpeed="0.00" departDelay="6.00" arrival="396.00" arrivalLane="E9_0" arrivalPos="679.28" arrivalSpeed="12.96" duration="390.00" routeLength="4833.11" waitingTime="0.00" waitingCount="0" stopTime="0.00" timeLoss="42.58" rerouteNo="1" devices="tripinfo_vehicle4 routing_vehicle4" vType="DEFAULT_VEHTYPE" speedFactor="1.01" vaporized=""/>
    <tripinfo id="vehicle7" depart="12.00" departLane="E40_0" departPos="5.10" departSpeed="0.00" departDelay="12.00" arrival="397.00" arrivalLane="E9_1" arrivalPos="679.28" arrivalSpeed="13.43" duration="385.00" routeLength="4833.11" waitingTime="0.00" waitingCount="0" stopTime="0.00" timeLoss="43.65" rerouteNo="1" devices="tripinfo_vehicle7 routing_vehicle7" vType="DEFAULT_VEHTYPE" speedFactor="1.03" vaporized=""/>
    <tripinfo id="vehicle10" depart="18.00" departLane="E40_0" departPos="5.10" departSpeed="0.00" departDelay="18.00" arrival="399.00" arrivalLane="E9_0" arrivalPos="679.28" arrivalSpeed="13.50" duration="381.00" routeLength="4833.11" waitingTime="0.00" waitingCount="0" stopTime="0.00" timeLoss="44.57" rerouteNo="1" devices="tripinfo_vehicle10 routing_vehicle10" vType="DEFAULT_VEHTYPE" speedFactor="1.05" vaporized=""/>
    <tripinfo id="vehicle16" depart="30.00" departLane="E40_0" departPos="5.10" departSpeed="0.00" departDelay="30.00" arrival="400.00" arrivalLane="E9_1" arrivalPos="679.28" arrivalSpeed="14.78" duration="370.00" routeLength="4833.11" waitingTime="0.00" waitingCount="0" stopTime="0.00" timeLoss="47.52" rerouteNo="1" devices="tripinfo_vehicle16 routing_vehicle16" vType="DEFAULT_VEHTYPE" speedFactor="1.09" vaporized=""/>
    <tripinfo id="vehicle19" depart="36.00" departLane="E40_0" departPos="5.10" departSpeed="0.00" departDelay="36.00" arrival="409.00" arrivalLane="E9_0" arrivalPos="679.28" arrivalSpeed="14.10" duration="373.00" routeLength="4833.11" waitingTime="0.00" waitingCount="0" stopTime="0.00" timeLoss="37.13" rerouteNo="1" devices="tripinfo_vehicle19 routing_vehicle19" vType="DEFAULT_VEHTYPE" speedFactor="1.05" vaporized=""/>
    <tripinfo id="vehicle68" depart="135.00" departLane="E40_0" departPos="5.10" departSpeed="0.00" departDelay="135.00" arrival="410.00" arrivalLane="E9_1" arrivalPos="679.28" arrivalSpeed="14.05" duration="275.00" routeLength="3332.35" waitingTime="0.00" waitingCount="0" stopTime="0.00" timeLoss="51.28" rerouteNo="1" devices="tripinfo_vehicle68 routing_vehicle68" vType="evehicle" speedFactor="1.09" vaporized=""/>
    <tripinfo id="vehicle59" depart="117.00" departLane="E40_0" departPos="5.10" departSpeed="0.00" departDelay="117.00" arrival="413.00" arrivalLane="E9_0" arrivalPos="679.28" arrivalSpeed="12.45" duration="296.00" routeLength="3336.61" waitingTime="0.00" waitingCount="0" stopTime="0.00" timeLoss="25.15" rerouteNo="1" devices="tripinfo_vehicle59 routing_vehicle59" vType="evehicle" speedFactor="0.90" vaporized=""/>
    <tripinfo id="vehicle65" depart="129.00" departLane="E40_0" departPos="5.10" departSpeed="0.00" departDelay="129.00" arrival="416.00" arrivalLane="E9_0" arrivalPos="679.28" arrivalSpeed="13.44" duration="287.00" routeLength="3332.35" waitingTime="2.00" waitingCount="1" stopTime="0.00" timeLoss="51.57" rerouteNo="1" devices="tripinfo_vehicle65 routing_vehicle65" vType="evehicle" speedFactor="1.04" vaporized=""/>
    <tripinfo id="vehicle62" depart="123.00" departLane="E40_0" departPos="5.10" departSpeed="0.00" departDelay="123.00" arrival="418.00" arrivalLane="E9_0" arrivalPos="679.28" arrivalSpeed="13.22" duration="295.00" routeLength="3336.61" waitingTime="2.00" waitingCount="1" stopTime="0.00" timeLoss="39.90" rerouteNo="1" devices="tripinfo_vehicle62 routing_vehicle62" vType="evehicle" speedFactor="0.96" vaporized=""/>
    <tripinfo id="vehicle22" depart="41.00" departLane="E40_0" departPos="5.10" departSpeed="0.00" departDelay="41.00" arrival="430.00" arrivalLane="E9_1" arrivalPos="679.28" arrivalSpeed="13.03" duration="389.00" routeLength="4833.11" waitingTime="0.00" waitingCount="0" stopTime="0.00" timeLoss="35.05" rerouteNo="1" devices="tripinfo_vehicle22 routing_vehicle22" vType="DEFAULT_VEHTYPE" speedFactor="0.99" vaporized=""/>
    <tripinfo id="vehicle13" depart="24.00" departLane="E40_0" departPos="5.10" departSpeed="0.00" departDelay="24.00" arrival="431.00" arrivalLane="E9_0" arrivalPos="679.28" arrivalSpeed="12.89" duration="407.00" routeLength="4827.98" waitingTime="0.00" waitingCount="0" stopTime="0.00" timeLoss="32.15" rerouteNo="1" devices="tripinfo_vehicle13 routing_vehicle13" vType="DEFAULT_VEHTYPE" speedFactor="0.94" vaporized=""/>
    <tripinfo id="vehicle77" depart="153.00" departLane="E40_0" departPos="5.10" departSpeed="0.00" departDelay="153.00" arrival="432.00" arrivalLane="E9_1" arrivalPos="679.28" arrivalSpeed="15.28" duration="279.00" routeLength="3332.09" waitingTime="0.00" waitingCount="0" stopTime="0.00" timeLoss="69.86" rerouteNo="1" devices="tripinfo_vehicle77 routing_vehicle77" vType="evehicle" speedFactor="1.17" vaporized=""/>
    <tripinfo id="vehicle43" depart="84.00" departLane="E40_0" departPos="5.10" departSpeed="0.00" departDelay="84.00" arrival="435.00" arrivalLane="E9_0" arrivalPos="679.28" arrivalSpeed="15.44" duration="351.00" routeLength="4835.62" waitingTime="0.00" waitingCount="0" stopTime="0.00" timeLoss="40.07" rerouteNo="1" devices="tripinfo_vehicle43 routing_vehicle43" vType="DEFAULT_VEHTYPE" speedFactor="1.13" vaporized=""/>
    <tripinfo id="vehicle92" depart="184.00" departLane="E40_0" departPos="5.10" departSpeed="0.00" departDelay="184.00" arrival="438.00" arrivalLane="E9_0" arrivalPos="679.28" arrivalSpeed="14.83" duration="254.00" routeLength="3377.28" waitingTime="0.00" waitingCount="0" stopTime="0.00" timeLoss="32.54" rerouteNo="2" devices="tripinfo_vehicle92 routing_vehicle92" vType="evehicle" speedFactor="1.12" vaporized=""/>
    <tripinfo id="vehicle71" depart="141.00" departLane="E40_0" departPos="5.10" departSpeed="0.00" departDelay="141.00" arrival="442.00" arrivalLane="E9_0" arrivalPos="679.28" arrivalSpeed="11.39" duration="301.00" routeLength="3336.61" waitingTime="0.00" waitingCount="0" stopTime="0.00" timeLoss="30.17" rerouteNo="1" devices="tripinfo_vehicle71 routing_vehicle71" vType="evehicle" speedFactor="0.90" vaporized=""/>
    <tripinfo id="vehicle31" depart="60.00" departLane="E40_0" departPos="5.10" departSpeed="0.00" departDelay="60.00" arrival="446.00" arrivalLane="E9_0" arrivalPos="679.28" arrivalSpeed="13.98" duration="386.00" routeLength="4833.11" waitingTime="0.00" waitingCount="0" stopTime="0.00" timeLoss="39.87" rerouteNo="1" devices="tripinfo_vehicle31 routing_vehicle31" vType="DEFAULT_VEHTYPE" speedFactor="1.02" vaporized=""/>
    <tripinfo id="vehicle80" depart="159.00" departLane="E40_0" departPos="5.10" departSpeed="0.00" departDelay="159.00" arrival="458.00" arrivalLane="E9_0" arrivalPos="679.28" arrivalSpeed="14.59" duration="299.00" routeLength="3332.35" waitingTime="8.00" waitingCount="2" stopTime="0.00" timeLoss="75.77" rerouteNo="1" devices="tripinfo_vehicle80 routing_vehicle80" vType="evehicle" speedFactor="1.10" vaporized=""/>
    <tripinfo id="vehicle83" depart="166.00" departLane="E40_0" departPos="5.10" departSpeed="0.00" departDelay="166.00" arrival="465.00" arrivalLane="E9_0" arrivalPos="679.28" arrivalSpeed="13.69" duration="299.00" routeLength="3327.83" waitingTime="5.00" waitingCount="1" stopTime="0.00" timeLoss="54.24" rerouteNo="1" devices="tripinfo_vehicle83 routing_vehicle83" vType="evehicle" speedFactor="1.00" vaporized=""/>
    <tripinfo id="vehicle74" depart="147.00" departLane="E40_0" departPos="5.10" departSpeed="0.00" departDelay="147.00" arrival="469.00" arrivalLane="E9_0" arrivalPos="679.28" arrivalSpeed="11.17" duration="322.00" routeLength="3336.61" waitingTime="4.00" waitingCount="1" stopTime="0.00" timeLoss="35.37" rerouteNo="1" devices="tripinfo_vehicle74 routing_vehicle74" vType="evehicle" speedFactor="0.85" vaporized=""/>
    <tripinfo id="vehicle34" depart="66.00" departLane="E40_0" departPos="5.10" departSpeed="0.00" departDelay="66.00" arrival="470.00" arrivalLane="E9_1" arrivalPos="679.28" arrivalSpeed="13.38" duration="404.00" routeLength="4835.62" waitingTime="0.00" waitingCount="0" stopTime="0.00" timeLoss="43.56" rerouteNo="1" devices="tripinfo_vehicle34 routing_vehicle34" vType="DEFAULT_VEHTYPE" speedFactor="0.97" vaporized=""/>
    <tripinfo id="vehicle28" depart="53.00" departLane="E40_0" departPos="5.10" departSpeed="0.00" departDelay="53.00" arrival="471.00" arrivalLane="E9_0" arrivalPos="679.28" arrivalSpeed="12.58" duration="418.00" routeLength="4833.11" waitingTime="0.00" waitingCount="0" stopTime="0.00" timeLoss="41.75" rerouteNo="1" devices="tripinfo_vehicle28 routing_vehicle28" vType="DEFAULT_VEHTYPE" speedFactor="0.94" vaporized=""/>
    <tripinfo id="vehicle86" depart="172.00" departLane="E40_0" departPos="5.10" departSpeed="0.00" departDelay="172.00" arrival="472.00" arrivalLane="E9_1" arrivalPos="679.28" arrivalSpeed="14.93" duration="300.00" routeLength="3336.61" waitingTime="10.00" waitingCount="2" stopTime="0.00" timeLoss="86.34" rerouteNo="1" devices="tripinfo_vehicle86 routing_vehicle86" vType="evehicle" speedFactor="1.14" vaporized=""/>
    <tripinfo id="vehicle46" depart="90.00" departLane="E40_0" departPos="5.10" departSpeed="0.00" departDelay="90.00" arrival="473.00" arrivalLane="E9_0" arrivalPos="679.28" arrivalSpeed="15.95" duration="383.00" routeLength="4827.98" waitingTime="0.00" waitingCount="0" stopTime="0.00" timeLoss="84.87" rerouteNo="1" devices="tripinfo_vehicle46 routing_vehicle46" vType="DEFAULT_VEHTYPE" speedFactor="1.18" vaporized=""/>
    <tripinfo id="vehicle95" depart="190.00" departLane="E40_0" departPos="5.10" departSpeed="0.00" departDelay="190.00" arrival="479.00" arrivalLane="E9_0" arrivalPos="679.28" arrivalSpeed="13.35" duration="289.00" routeLength="3381.80" waitingTime="0.00" waitingCount="0" stopTime="0.00" timeLoss="37.99" rerouteNo="2" devices="tripinfo_vehicle95 routing_vehicle95" vType="evehicle" speedFactor="0.99" vaporized=""/>
    <tripinfo id="vehicle89" depart="178.00" departLane="E40_0" departPos="5.10" departSpeed="0.00" departDelay="178.00" arrival="481.00" arrivalLane="E9_0" arrivalPos="679.28" arrivalSpeed="13.32" duration="303.00" routeLength="3332.35" waitingTime="2.00" waitingCount="1" stopTime="0.00" timeLoss="51.75" rerouteNo="1" devices="tripinfo_vehicle89 routing_vehicle89" vType="evehicle" speedFactor="0.97" vaporized=""/>
    <tripinfo id="vehicle49" depart="96.00" departLane="E40_0" departPos="5.10" departSpeed="0.00" departDelay="96.00" arrival="485.00" arrivalLane="E9_0" arrivalPos="679.28" arrivalSpeed="12.85" duration="389.00" routeLength="4835.62" waitingTime="0.00" waitingCount="0" stopTime="0.00" timeLoss="39.17" rerouteNo="1" devices="tripinfo_vehicle49 routing_vehicle49" vType="DEFAULT_VEHTYPE" speedFactor="1.01" vaporized=""/>
    <tripinfo id="vehicle104" depart="208.00" departLane="E40_0" departPos="5.10" departSpeed="0.00" departDelay="208.00" arrival="486.00" arrivalLane="E9_1" arrivalPos="679.28" arrivalSpeed="13.06" duration="278.00" routeLength="3381.80" waitingTime="0.00" waitingCount="0" stopTime="0.00" timeLoss="35.82" rerouteNo="2" devices="tripinfo_vehicle104 routing_vehicle104" vType="evehicle" speedFactor="1.02" vaporized=""/>
    <tripinfo id="vehicle58" depart="114.00" departLane="E40_0" departPos="5.10" departSpeed="0.00" departDelay="114.00" arrival="488.00" arrivalLane="E9_1" arrivalPos="679.28" arrivalSpeed="14.20" duration="374.00" routeLength="4833.11" waitingTime="0.00" waitingCount="0" stopTime="0.00" timeLoss="54.44" rerouteNo="1" devices="tripinfo_vehicle58 routing_vehicle58" vType="DEFAULT_VEHTYPE" speedFactor="1.10" vaporized=""/>
    <tripinfo id="vehicle25" depart="47.00" departLane="E40_0" departPos="5.10" departSpeed="0.00" departDelay="47.00" arrival="490.00" arrivalLane="E9_0" arrivalPos="679.28" arrivalSpeed="11.89" duration="443.00" routeLength="4833.11" waitingTime="0.00" waitingCount="0" stopTime="0.00" timeLoss="43.01" rerouteNo="1" devices="tripinfo_vehicle25 routing_vehicle25" vType="DEFAULT_VEHTYPE" speedFactor="0.88" vaporized=""/>
    <tripinfo id="vehicle52" depart="102.00" departLane="E40_0" departPos="5.10" departSpeed="0.00" departDelay="102.00" arrival="496.00" arrivalLane="E9_0" arrivalPos="679.28" arrivalSpeed="12.64" duration="394.00" routeLength="4827.98" waitingTime="0.00" waitingCount="0" stopTime="0.00" timeLoss="41.30" rerouteNo="1" devices="tripinfo_vehicle52 routing_vehicle52" vType="DEFAULT_VEHTYPE" speedFactor="0.99" vaporized=""/>
    <tripinfo id="vehicle64" depart="126.00" departLane="E40_0" departPos="5.10" departSpeed="0.00" departDelay="126.00" arrival="497.00" arrivalLane="E9_1" arrivalPos="679.28" arrivalSpeed="14.56" duration="371.00" routeLength="4835.62" waitingTime="0.00" waitingCount="0" stopTime="0.00" timeLoss="48.80" rerouteNo="1" devices="tripinfo_vehicle64 routing_vehicle64" vType="DEFAULT_VEHTYPE" speedFactor="1.09" vaporized=""/>
    <tripinfo id="vehicle40" depart="78.00" departLane="E40_0" departPos="5.10" departSpeed="0.00" departDelay="78.00" arrival="498.00" arrivalLane="E9_0" arrivalPos="679.28" arrivalSpeed="12.32" duration="420.00" routeLength="4833.11" waitingTime="0.00" waitingCount="0" stopTime="0.00" timeLoss="36.59" rerouteNo="1" devices="tripinfo_vehicle40 routing_vehicle40" vType="DEFAULT_VEHTYPE" speedFactor="0.92" vaporized=""/>
    <tripinfo id="vehicle107" depart="214.00" departLane="E40_0" departPos="5.10" departSpeed="0.00" departDelay="214.00" arrival="506.00" arrivalLane="E9_0" arrivalPos="679.28" arrivalSpeed="13.04" duration="292.00" routeLength="3381.80" waitingTime="3.00" waitingCount="1" stopTime="0.00" timeLoss="38.07" rerouteNo="2" devices="tripinfo_vehicle107 routing_vehicle107" vType="evehicle" speedFactor="0.97" vaporized=""/>
    <tripinfo id="vehicle110" depart="220.00" departLane="E40_0" departPos="5.10" departSpeed="0.00" departDelay="220.00" arrival="507.00" arrivalLane="E9_1" arrivalPos="679.28" arrivalSpeed="14.42" duration="287.00" routeLength="3381.80" waitingTime="2.00" waitingCount="1" stopTime="0.00" timeLoss="51.81" rerouteNo="2" devices="tripinfo_vehicle110 routing_vehicle110" vType="evehicle" speedFactor="1.06" vaporized=""/>
    <tripinfo id="vehicle98" depart="196.00" departLane="E40_0" departPos="5.10" departSpeed="0.00" departDelay="196.00" arrival="509.00" arrivalLane="E9_0" arrivalPos="679.28" arrivalSpeed="11.35" duration="313.00" routeLength="3336.61" waitingTime="7.00" waitingCount="1" stopTime="0.00" timeLoss="36.68" rerouteNo="1" devices="tripinfo_vehicle98 routing_vehicle98" vType="evehicle" speedFactor="0.88" vaporized=""/>
    <tripinfo id="vehicle119" depart="238.00" departLane="E40_0" departPos="5.10" departSpeed="0.00" departDelay="238.00" arrival="509.00" arrivalLane="E9_1" arrivalPos="679.28" arrivalSpeed="14.84" duration="271.00" routeLength="3372.09" waitingTime="0.00" waitingCount="0" stopTime="0.00" timeLoss="43.09" rerouteNo="2" devices="tripinfo_vehicle119 routing_vehicle119" vType="evehicle" speedFactor="1.09" vaporized=""/>
    <tripinfo id="vehicle113" depart="226.00" departLane="E40_0" departPos="5.10" departSpeed="0.00" departDelay="226.00" arrival="511.00" arrivalLane="E9_1" arrivalPos="679.28" arrivalSpeed="12.42" duration="285.00" routeLength="3377.54" waitingTime="0.00" waitingCount="0" stopTime="0.00" timeLoss="33.09" rerouteNo="2" devices="tripinfo_vehicle113 routing_vehicle113" vType="evehicle" speedFactor="0.98" vaporized=""/>
    <tripinfo id="vehicle116" depart="232.00" departLane="E40_0" departPos="5.10" departSpeed="0.00" departDelay="232.00" arrival="517.00" arrivalLane="E9_0" arrivalPos="679.28" arrivalSpeed="13.28" duration="285.00" routeLength="3381.80" waitingTime="0.00" waitingCount="0" stopTime="0.00" timeLoss="32.99" rerouteNo="2" devices="tripinfo_vehicle116 routing_vehicle116" vType="evehicle" speedFactor="0.98" vaporized=""/>
    <tripinfo id="vehicle55" depart="108.00" departLane="E40_0" departPos="5.10" departSpeed="0.00" departDelay="108.00" arrival="527.00" arrivalLane="E9_0" arrivalPos="679.28" arrivalSpeed="12.39" duration="419.00" routeLength="4833.11" waitingTime="0.00" waitingCount="0" stopTime="0.00" timeLoss="57.63" rerouteNo="1" devices="tripinfo_vehicle55 routing_vehicle55" vType="DEFAULT_VEHTYPE" speedFactor="0.97" vaporized=""/>
    <tripinfo id="vehicle67" depart="132.00" departLane="E40_0" departPos="5.10" departSpeed="0.00" departDelay="132.00" arrival="527.00" arrivalLane="E9_1" arrivalPos="679.28" arrivalSpeed="13.86" duration="395.00" routeLength="4827.98" waitingTime="0.00" waitingCount="0" stopTime="0.00" timeLoss="58.12" rerouteNo="1" devices="tripinfo_vehicle67 routing_vehicle67" vType="DEFAULT_VEHTYPE" speedFactor="1.04" vaporized=""/>
    <tripinfo id="vehicle61" depart="120.00" departLane="E40_0" departPos="5.10" departSpeed="0.00" departDelay="120.00" arrival="529.00" arrivalLane="E9_1" arrivalPos="679.28" arrivalSpeed="13.32" duration="409.00" routeLength="4833.11" waitingTime="0.00" waitingCount="0" stopTime="0.00" timeLoss="68.73" rerouteNo="1" devices="tripinfo_vehicle61 routing_vehicle61" vType="DEFAULT_VEHTYPE" speedFactor="1.03" vaporized=""/>
    <tripinfo id="vehicle70" depart="138.00" departLane="E40_0" departPos="5.10" departSpeed="0.00" departDelay="138.00" arrival="533.00" arrivalLane="E9_0" arrivalPos="679.28" arrivalSpeed="13.11" duration="395.00" routeLength="4827.98" waitingTime="1.00" waitingCount="1" stopTime="0.00" timeLoss="42.80" rerouteNo="1" devices="tripinfo_vehicle70 routing_vehicle70" vType="DEFAULT_VEHTYPE" speedFactor="1.00" vaporized=""/>
    <tripinfo id="vehicle37" depart="72.00" departLane="E40_0" departPos="5.10" departSpeed="0.00" departDelay="72.00" arrival="535.00" arrivalLane="E9_0" arrivalPos="679.28" arrivalSpeed="10.47" duration="463.00" routeLength="4833.11" waitingTime="0.00" waitingCount="0" stopTime="0.00" timeLoss="37.59" rerouteNo="1" devices="tripinfo_vehicle37 routing_vehicle37" vType="DEFAULT_VEHTYPE" speedFactor="0.83" vaporized=""/>
    <tripinfo id="vehicle122" depart="244.00" departLane="E40_0" departPos="5.10" departSpeed="0.00" departDelay="244.00" arrival="536.00" arrivalLane="E9_1" arrivalPos="679.28" arrivalSpeed="12.85" duration="292.00" routeLength="3377.54" waitingTime="0.00" waitingCount="0" stopTime="0.00" timeLoss="44.12" rerouteNo="2" devices="tripinfo_vehicle122 routing_vehicle122" vType="evehicle" speedFactor="1.00" vaporized=""/>
    <tripinfo id="vehicle131" depart="262.00" departLane="E40_0" departPos="5.10" departSpeed="0.00" departDelay="262.00" arrival="539.00" arrivalLane="E9_0" arrivalPos="679.28" arrivalSpeed="13.45" duration="277.00" routeLength="3376.44" waitingTime="0.00" waitingCount="0" stopTime="0.00" timeLoss="40.39" rerouteNo="2" devices="tripinfo_vehicle131 routing_vehicle131" vType="evehicle" speedFactor="1.04" vaporized=""/>
    <tripinfo id="vehicle101" depart="202.00" departLane="E40_0" departPos="5.10" departSpeed="0.00" departDelay="202.00" arrival="543.00" arrivalLane="E9_0" arrivalPos="679.28" arrivalSpeed="11.61" duration="341.00" routeLength="3332.09" waitingTime="27.00" waitingCount="3" stopTime="0.00" timeLoss="74.18" rerouteNo="1" devices="tripinfo_vehicle101 routing_vehicle101" vType="evehicle" speedFactor="0.91" vaporized=""/>
    <tripinfo id="vehicle125" depart="250.00" departLane="E40_0" departPos="5.10" departSpeed="0.00" departDelay="250.00" arrival="544.00" arrivalLane="E9_1" arrivalPos="679.28" arrivalSpeed="13.29" duration="294.00" routeLength="3381.80" waitingTime="0.00" waitingCount="0" stopTime="0.00" timeLoss="38.29" rerouteNo="2" devices="tripinfo_vehicle125 routing_vehicle125" vType="evehicle" speedFactor="0.97" vaporized=""/>
    <tripinfo id="vehicle128" depart="256.00" departLane="E40_0" departPos="5.10" departSpeed="0.00" departDelay="256.00" arrival="546.00" arrivalLane="E9_0" arrivalPos="679.28" arrivalSpeed="12.56" duration="290.00" routeLength="3381.80" waitingTime="0.00" waitingCount="0" stopTime="0.00" timeLoss="35.93" rerouteNo="2" devices="tripinfo_vehicle128 routing_vehicle128" vType="evehicle" speedFactor="0.98" vaporized=""/>
    <tripinfo id="vehicle79" depart="156.00" departLane="E40_0" departPos="5.10" departSpeed="0.00" departDelay="156.00" arrival="547.00" arrivalLane="E9_1" arrivalPos="679.28" arrivalSpeed="14.01" duration="391.00" routeLength="4833.11" waitingTime="0.00" waitingCount="0" stopTime="0.00" timeLoss="45.61" rerouteNo="1" devices="tripinfo_vehicle79 routing_vehicle79" vType="DEFAULT_VEHTYPE" speedFactor="1.02" vaporized=""/>