<?xml version="1.0" encoding="UTF-8"?>

<!-- generated on 2022-12-08 20:42:22 by Eclipse SUMO GUI Version 1.15.0
<configuration xmlns:xsi="http://www.w3.org/2001/XMLSchema-instance" xsi:noNamespaceSchemaLocation="http://sumo.dlr.de/xsd/sumoConfiguration.xsd">

    <input>
        <net-file value="simple_uvar.net.xml"/>
        <route-files value="simple_uvar.rou.xml"/>
        <additional-files value="simple_uvar_parking_lots.xml"/>
    </input>

    <output>
        <tripinfo-output value="tripinfo.xml"/>
    </output>

    <time>
        <begin value="0"/>
        <end value="10000"/>
    </time>

    <traci_server>
        <remote-port value="61535"/>
    </traci_server>

    <gui_only>
        <gui-settings-file value="simple_uvar.settings.xml"/>
    </gui_only>

</configuration>
-->

<tripinfos xmlns:xsi="http://www.w3.org/2001/XMLSchema-instance" xsi:noNamespaceSchemaLocation="http://sumo.dlr.de/xsd/tripinfo_file.xsd">
    <tripinfo id="vehicle2" depart="3.00" departLane="E40_0" departPos="5.10" departSpeed="0.00" departDelay="3.00" arrival="336.00" arrivalLane="E9_0" arrivalPos="679.29" arrivalSpeed="13.92" duration="333.00" routeLength="3336.61" waitingTime="58.00" waitingCount="1" stopTime="0.00" timeLoss="91.80" rerouteNo="1" devices="tripinfo_vehicle2 routing_vehicle2" vType="evehicle" speedFactor="1.01" vaporized=""/>
    <tripinfo id="vehicle8" depart="15.00" departLane="E40_0" departPos="5.10" departSpeed="0.00" departDelay="15.00" arrival="414.00" arrivalLane="E9_0" arrivalPos="679.29" arrivalSpeed="12.99" duration="399.00" routeLength="3332.35" waitingTime="86.00" waitingCount="2" stopTime="0.00" timeLoss="138.42" rerouteNo="1" devices="tripinfo_vehicle8 routing_vehicle8" vType="evehicle" speedFactor="0.94" vaporized=""/>
    <tripinfo id="vehicle6" depart="6.00" departLane="E6_0" departPos="5.10" departSpeed="0.00" departDelay="6.00" arrival="438.00" arrivalLane="-E11_0" arrivalPos="81.80" arrivalSpeed="14.22" duration="432.00" routeLength="3979.23" waitingTime="0.00" waitingCount="0" stopTime="119.00" timeLoss="35.42" rerouteNo="1" devices="tripinfo_vehicle6 routing_vehicle6" vType="DEFAULT_VEHTYPE" speedFactor="1.05" vaporized=""/>
    <tripinfo id="vehicle33" depart="33.00" departLane="E6_0" departPos="5.10" departSpeed="0.00" departDelay="33.00" arrival="457.00" arrivalLane="-E11_0" arrivalPos="81.80" arrivalSpeed="13.94" duration="424.00" routeLength="3979.23" waitingTime="0.00" waitingCount="0" stopTime="126.00" timeLoss="50.90" rerouteNo="1" devices="tripinfo_vehicle33 routing_vehicle33" vType="DEFAULT_VEHTYPE" speedFactor="1.17" vaporized=""/>
    <tripinfo id="vehicle0" depart="0.00" departLane="E6_0" departPos="5.10" departSpeed="0.00" departDelay="0.00" arrival="464.00" arrivalLane="-E11_0" arrivalPos="81.80" arrivalSpeed="14.12" duration="464.00" routeLength="3979.23" waitingTime="54.00" waitingCount="1" stopTime="156.00" timeLoss="34.49" rerouteNo="1" devices="tripinfo_vehicle0 routing_vehicle0" vType="DEFAULT_VEHTYPE" speedFactor="1.06" vaporized=""/>
    <tripinfo id="vehicle12" depart="12.00" departLane="E6_0" departPos="5.10" departSpeed="0.00" departDelay="12.00" arrival="482.00" arrivalLane="-E11_0" arrivalPos="81.80" arrivalSpeed="13.59" duration="470.00" routeLength="3979.23" waitingTime="0.00" waitingCount="0" stopTime="158.00" timeLoss="35.42" rerouteNo="1" devices="tripinfo_vehicle12 routing_vehicle12" vType="DEFAULT_VEHTYPE" speedFactor="1.05" vaporized=""/>
    <tripinfo id="vehicle42" depart="42.00" departLane="E6_0" departPos="5.10" departSpeed="0.00" departDelay="42.00" arrival="491.00" arrivalLane="-E11_0" arrivalPos="81.80" arrivalSpeed="11.68" duration="449.00" routeLength="3979.23" waitingTime="0.00" waitingCount="0" stopTime="117.00" timeLoss="66.83" rerouteNo="1" devices="tripinfo_vehicle42 routing_vehicle42" vType="DEFAULT_VEHTYPE" speedFactor="1.09" vaporized=""/>
    <tripinfo id="vehicle18" depart="18.00" departLane="E6_0" departPos="5.10" departSpeed="0.00" departDelay="18.00" arrival="494.00" arrivalLane="-E11_0" arrivalPos="81.80" arrivalSpeed="12.23" duration="476.00" routeLength="3979.23" waitingTime="0.00" waitingCount="0" stopTime="125.00" timeLoss="40.73" rerouteNo="1" devices="tripinfo_vehicle18 routing_vehicle18" vType="DEFAULT_VEHTYPE" speedFactor="0.94" vaporized=""/>
    <tripinfo id="vehicle3" depart="3.00" departLane="E6_0" departPos="5.10" departSpeed="0.00" departDelay="3.00" arrival="503.00" arrivalLane="-E11_0" arrivalPos="81.80" arrivalSpeed="14.50" duration="500.00" routeLength="3979.23" waitingTime="3.00" waitingCount="1" stopTime="190.00" timeLoss="40.89" rerouteNo="1" devices="tripinfo_vehicle3 routing_vehicle3" vType="DEFAULT_VEHTYPE" speedFactor="1.08" vaporized=""/>
    <tripinfo id="vehicle9" depart="9.00" departLane="E6_0" departPos="5.10" departSpeed="0.00" departDelay="9.00" arrival="516.00" arrivalLane="-E11_0" arrivalPos="81.80" arrivalSpeed="8.35" duration="507.00" routeLength="3975.06" waitingTime="2.00" waitingCount="2" stopTime="115.00" timeLoss="54.74" rerouteNo="1" devices="tripinfo_vehicle9 routing_vehicle9" vType="DEFAULT_VEHTYPE" speedFactor="0.86" vaporized=""/>
    <tripinfo id="vehicle30" depart="30.00" departLane="E6_0" departPos="5.10" departSpeed="0.00" departDelay="30.00" arrival="518.00" arrivalLane="-E11_0" arrivalPos="81.80" arrivalSpeed="11.61" duration="488.00" routeLength="3979.23" waitingTime="0.00" waitingCount="0" stopTime="179.00" timeLoss="62.85" rerouteNo="1" devices="tripinfo_vehicle30 routing_vehicle30" vType="DEFAULT_VEHTYPE" speedFactor="1.18" vaporized=""/>
    <tripinfo id="vehicle11" depart="21.00" departLane="E40_0" departPos="5.10" departSpeed="0.00" departDelay="21.00" arrival="520.00" arrivalLane="E9_0" arrivalPos="679.29" arrivalSpeed="13.12" duration="499.00" routeLength="3336.61" waitingTime="183.00" waitingCount="3" stopTime="0.00" timeLoss="261.12" rerouteNo="1" devices="tripinfo_vehicle11 routing_vehicle11" vType="evehicle" speedFactor="1.03" vaporized=""/>
    <tripinfo id="vehicle21" depart="21.00" departLane="E6_0" departPos="5.10" departSpeed="0.00" departDelay="21.00" arrival="521.00" arrivalLane="-E11_0" arrivalPos="81.80" arrivalSpeed="13.08" duration="500.00" routeLength="3979.23" waitingTime="3.00" waitingCount="1" stopTime="173.00" timeLoss="40.28" rerouteNo="1" devices="tripinfo_vehicle21 routing_vehicle21" vType="DEFAULT_VEHTYPE" speedFactor="1.01" vaporized=""/>
    <tripinfo id="vehicle20" depart="40.00" departLane="E40_0" departPos="5.10" departSpeed="0.00" departDelay="40.00" arrival="522.00" arrivalLane="E9_0" arrivalPos="679.29" arrivalSpeed="13.19" duration="482.00" routeLength="3332.35" waitingTime="181.00" waitingCount="3" stopTime="0.00" timeLoss="242.30" rerouteNo="1" devices="tripinfo_vehicle20 routing_vehicle20" vType="evehicle" speedFactor="1.02" vaporized=""/>
    <tripinfo id="vehicle35" depart="70.00" departLane="E40_0" departPos="5.10" departSpeed="0.00" departDelay="70.00" arrival="524.00" arrivalLane="E9_0" arrivalPos="679.29" arrivalSpeed="13.15" duration="454.00" routeLength="3327.83" waitingTime="164.00" waitingCount="2" stopTime="0.00" timeLoss="215.58" rerouteNo="1" devices="tripinfo_vehicle35 routing_vehicle35" vType="evehicle" speedFactor="1.02" vaporized=""/>
    <tripinfo id="vehicle38" depart="76.00" departLane="E40_0" departPos="5.10" departSpeed="0.00" departDelay="76.00" arrival="524.00" arrivalLane="E9_1" arrivalPos="679.29" arrivalSpeed="15.26" duration="448.00" routeLength="3332.35" waitingTime="164.00" waitingCount="2" stopTime="0.00" timeLoss="227.03" rerouteNo="1" devices="tripinfo_vehicle38 routing_vehicle38" vType="evehicle" speedFactor="1.10" vaporized=""/>
    <tripinfo id="vehicle57" depart="57.00" departLane="E6_0" departPos="5.10" departSpeed="0.00" departDelay="57.00" arrival="526.00" arrivalLane="-E11_0" arrivalPos="81.80" arrivalSpeed="9.43" duration="469.00" routeLength="3979.23" waitingTime="1.00" waitingCount="1" stopTime="131.00" timeLoss="84.47" rerouteNo="1" devices="tripinfo_vehicle57 routing_vehicle57" vType="DEFAULT_VEHTYPE" speedFactor="1.14" vaporized=""/>
    <tripinfo id="vehicle60" depart="60.00" departLane="E6_0" departPos="5.10" departSpeed="0.00" departDelay="60.00" arrival="529.00" arrivalLane="-E11_0" arrivalPos="81.80" arrivalSpeed="7.64" duration="469.00" routeLength="3979.23" waitingTime="4.00" waitingCount="2" stopTime="117.00" timeLoss="83.59" rerouteNo="1" devices="tripinfo_vehicle60 routing_vehicle60" vType="DEFAULT_VEHTYPE" speedFactor="1.08" vaporized=""/>
    <tripinfo id="vehicle5" depart="9.00" departLane="E40_0" departPos="5.10" departSpeed="0.00" departDelay="9.00" arrival="530.00" arrivalLane="E9_0" arrivalPos="679.29" arrivalSpeed="11.33" duration="521.00" routeLength="3336.61" waitingTime="186.00" waitingCount="3" stopTime="0.00" timeLoss="227.15" rerouteNo="1" devices="tripinfo_vehicle5 routing_vehicle5" vType="evehicle" speedFactor="0.83" vaporized=""/>
    <tripinfo id="vehicle15" depart="15.00" departLane="E6_0" departPos="5.10" departSpeed="0.00" departDelay="15.00" arrival="534.00" arrivalLane="-E11_0" arrivalPos="81.80" arrivalSpeed="12.04" duration="519.00" routeLength="3979.23" waitingTime="5.00" waitingCount="1" stopTime="170.00" timeLoss="36.47" rerouteNo="1" devices="tripinfo_vehicle15 routing_vehicle15" vType="DEFAULT_VEHTYPE" speedFactor="0.93" vaporized=""/>
    <tripinfo id="vehicle27" depart="27.00" departLane="E6_0" departPos="5.10" departSpeed="0.00" departDelay="27.00" arrival="537.00" arrivalLane="-E11_0" arrivalPos="81.80" arrivalSpeed="11.76" duration="510.00" routeLength="3979.23" waitingTime="0.00" waitingCount="0" stopTime="152.00" timeLoss="52.06" rerouteNo="1" devices="tripinfo_vehicle27 routing_vehicle27" vType="DEFAULT_VEHTYPE" speedFactor="0.95" vaporized=""/>
    <tripinfo id="vehicle14" depart="28.00" departLane="E40_0" departPos="5.10" departSpeed="0.00" departDelay="28.00" arrival="539.00" arrivalLane="E9_0" arrivalPos="679.29" arrivalSpeed="12.73" duration="511.00" routeLength="3336.61" waitingTime="196.00" waitingCount="5" stopTime="0.00" timeLoss="263.80" rerouteNo="1" devices="tripinfo_vehicle14 routing_vehicle14" vType="evehicle" speedFactor="0.99" vaporized=""/>
</tripinfos>
