<?xml version="1.0" encoding="UTF-8"?>

<!-- generated on 2022-12-09 10:40:08 by Eclipse SUMO GUI Version 1.15.0
<configuration xmlns:xsi="http://www.w3.org/2001/XMLSchema-instance" xsi:noNamespaceSchemaLocation="http://sumo.dlr.de/xsd/sumoConfiguration.xsd">

    <input>
        <net-file value="simple_uvar.net.xml"/>
        <route-files value="simple_uvar.rou.xml"/>
        <additional-files value="simple_uvar_parking_lots.xml,haha.xml"/>
    </input>

    <output>
        <tripinfo-output value="tripinfo.xml"/>
    </output>

    <time>
        <begin value="0"/>
        <end value="10000"/>
    </time>

    <traci_server>
        <remote-port value="55616"/>
    </traci_server>

    <gui_only>
        <gui-settings-file value="simple_uvar.settings.xml"/>
    </gui_only>

</configuration>
-->

<tripinfos xmlns:xsi="http://www.w3.org/2001/XMLSchema-instance" xsi:noNamespaceSchemaLocation="http://sumo.dlr.de/xsd/tripinfo_file.xsd">
    <tripinfo id="vehicle2" depart="3.00" departLane="E40_0" departPos="5.10" departSpeed="0.00" departDelay="3.00" arrival="338.00" arrivalLane="E9_0" arrivalPos="679.29" arrivalSpeed="13.48" duration="335.00" routeLength="3336.61" waitingTime="60.00" waitingCount="1" stopTime="0.00" timeLoss="93.03" rerouteNo="1" devices="tripinfo_vehicle2 routing_vehicle2" vType="evehicle" speedFactor="1.01" vaporized=""/>
    <tripinfo id="vehicle8" depart="15.00" departLane="E40_0" departPos="5.10" departSpeed="0.00" departDelay="15.00" arrival="415.00" arrivalLane="E9_0" arrivalPos="679.29" arrivalSpeed="12.10" duration="400.00" routeLength="3327.83" waitingTime="86.00" waitingCount="2" stopTime="0.00" timeLoss="140.67" rerouteNo="1" devices="tripinfo_vehicle8 routing_vehicle8" vType="evehicle" speedFactor="0.94" vaporized=""/>
    <tripinfo id="vehicle33" depart="33.00" departLane="E6_0" departPos="5.10" departSpeed="0.00" departDelay="33.00" arrival="476.00" arrivalLane="-E11_0" arrivalPos="81.80" arrivalSpeed="5.69" duration="443.00" routeLength="3979.22" waitingTime="4.00" waitingCount="1" stopTime="136.00" timeLoss="60.50" rerouteNo="1" devices="tripinfo_vehicle33 routing_vehicle33" vType="DEFAULT_VEHTYPE" speedFactor="1.17" vaporized=""/>
    <tripinfo id="vehicle12" depart="12.00" departLane="E6_0" departPos="5.10" departSpeed="0.00" departDelay="12.00" arrival="496.00" arrivalLane="-E11_0" arrivalPos="81.80" arrivalSpeed="7.15" duration="484.00" routeLength="3979.22" waitingTime="0.00" waitingCount="0" stopTime="170.00" timeLoss="36.96" rerouteNo="1" devices="tripinfo_vehicle12 routing_vehicle12" vType="DEFAULT_VEHTYPE" speedFactor="1.05" vaporized=""/>
    <tripinfo id="vehicle6" depart="6.00" departLane="E6_0" departPos="5.10" departSpeed="0.00" departDelay="6.00" arrival="507.00" arrivalLane="-E11_0" arrivalPos="81.80" arrivalSpeed="14.16" duration="501.00" routeLength="3979.22" waitingTime="0.00" waitingCount="0" stopTime="188.00" timeLoss="35.24" rerouteNo="1" devices="tripinfo_vehicle6 routing_vehicle6" vType="DEFAULT_VEHTYPE" speedFactor="1.05" vaporized=""/>
    <tripinfo id="vehicle11" depart="21.00" departLane="E40_0" departPos="5.10" departSpeed="0.00" departDelay="21.00" arrival="513.00" arrivalLane="E9_0" arrivalPos="679.29" arrivalSpeed="14.03" duration="492.00" routeLength="3336.61" waitingTime="196.00" waitingCount="4" stopTime="0.00" timeLoss="254.70" rerouteNo="1" devices="tripinfo_vehicle11 routing_vehicle11" vType="evehicle" speedFactor="1.03" vaporized=""/>
    <tripinfo id="vehicle30" depart="30.00" departLane="E6_0" departPos="5.10" departSpeed="0.00" departDelay="30.00" arrival="518.00" arrivalLane="-E11_0" arrivalPos="81.80" arrivalSpeed="15.20" duration="488.00" routeLength="3979.22" waitingTime="0.00" waitingCount="0" stopTime="189.00" timeLoss="52.86" rerouteNo="1" devices="tripinfo_vehicle30 routing_vehicle30" vType="DEFAULT_VEHTYPE" speedFactor="1.18" vaporized=""/>
    <tripinfo id="vehicle14" depart="27.00" departLane="E40_0" departPos="5.10" departSpeed="0.00" departDelay="27.00" arrival="527.00" arrivalLane="E9_0" arrivalPos="679.29" arrivalSpeed="13.25" duration="500.00" routeLength="3336.61" waitingTime="186.00" waitingCount="7" stopTime="0.00" timeLoss="254.25" rerouteNo="1" devices="tripinfo_vehicle14 routing_vehicle14" vType="evehicle" speedFactor="0.99" vaporized=""/>
    <tripinfo id="vehicle5" depart="9.00" departLane="E40_0" departPos="5.10" departSpeed="0.00" departDelay="9.00" arrival="535.00" arrivalLane="E9_0" arrivalPos="679.29" arrivalSpeed="10.75" duration="526.00" routeLength="3336.61" waitingTime="184.00" waitingCount="5" stopTime="0.00" timeLoss="232.03" rerouteNo="1" devices="tripinfo_vehicle5 routing_vehicle5" vType="evehicle" speedFactor="0.83" vaporized=""/>
    <tripinfo id="vehicle20" depart="39.00" departLane="E40_0" departPos="5.10" departSpeed="0.00" departDelay="39.00" arrival="539.00" arrivalLane="E9_0" arrivalPos="679.29" arrivalSpeed="12.93" duration="500.00" routeLength="3332.35" waitingTime="180.00" waitingCount="7" stopTime="0.00" timeLoss="260.01" rerouteNo="1" devices="tripinfo_vehicle20 routing_vehicle20" vType="evehicle" speedFactor="1.02" vaporized=""/>
    <tripinfo id="vehicle17" depart="33.00" departLane="E40_0" departPos="5.10" departSpeed="0.00" departDelay="33.00" arrival="541.00" arrivalLane="E9_0" arrivalPos="679.29" arrivalSpeed="12.50" duration="508.00" routeLength="3336.61" waitingTime="181.00" waitingCount="7" stopTime="0.00" timeLoss="248.96" rerouteNo="1" devices="tripinfo_vehicle17 routing_vehicle17" vType="evehicle" speedFactor="0.94" vaporized=""/>
    <tripinfo id="vehicle32" depart="63.00" departLane="E40_0" departPos="5.10" departSpeed="0.00" departDelay="63.00" arrival="541.00" arrivalLane="E9_1" arrivalPos="679.29" arrivalSpeed="13.46" duration="478.00" routeLength="3327.83" waitingTime="153.00" waitingCount="4" stopTime="0.00" timeLoss="236.03" rerouteNo="1" devices="tripinfo_vehicle32 routing_vehicle32" vType="evehicle" speedFactor="1.01" vaporized=""/>
    <tripinfo id="vehicle44" depart="87.00" departLane="E40_0" departPos="5.10" departSpeed="0.00" departDelay="87.00" arrival="543.00" arrivalLane="E9_0" arrivalPos="679.29" arrivalSpeed="13.49" duration="456.00" routeLength="3332.35" waitingTime="152.00" waitingCount="4" stopTime="0.00" timeLoss="221.62" rerouteNo="1" devices="tripinfo_vehicle44 routing_vehicle44" vType="evehicle" speedFactor="1.04" vaporized=""/>
    <tripinfo id="vehicle3" depart="3.00" departLane="E6_0" departPos="5.10" departSpeed="0.00" departDelay="3.00" arrival="545.00" arrivalLane="-E11_0" arrivalPos="81.80" arrivalSpeed="14.74" duration="542.00" routeLength="3979.22" waitingTime="6.00" waitingCount="1" stopTime="233.00" timeLoss="40.51" rerouteNo="1" devices="tripinfo_vehicle3 routing_vehicle3" vType="DEFAULT_VEHTYPE" speedFactor="1.08" vaporized=""/>
    <tripinfo id="vehicle21" depart="21.00" departLane="E6_0" departPos="5.10" departSpeed="0.00" departDelay="21.00" arrival="551.00" arrivalLane="-E11_0" arrivalPos="81.80" arrivalSpeed="13.88" duration="530.00" routeLength="3979.22" waitingTime="4.00" waitingCount="1" stopTime="204.00" timeLoss="38.70" rerouteNo="1" devices="tripinfo_vehicle21 routing_vehicle21" vType="DEFAULT_VEHTYPE" speedFactor="1.01" vaporized=""/>
    <tripinfo id="vehicle23" depart="45.00" departLane="E40_0" departPos="5.10" departSpeed="0.00" departDelay="45.00" arrival="553.00" arrivalLane="E9_0" arrivalPos="679.29" arrivalSpeed="11.20" duration="508.00" routeLength="3336.61" waitingTime="166.00" waitingCount="6" stopTime="0.00" timeLoss="234.38" rerouteNo="1" devices="tripinfo_vehicle23 routing_vehicle23" vType="evehicle" speedFactor="0.89" vaporized=""/>
    <tripinfo id="vehicle26" depart="51.00" departLane="E40_0" departPos="5.10" departSpeed="0.00" departDelay="51.00" arrival="554.00" arrivalLane="E9_1" arrivalPos="679.29" arrivalSpeed="11.83" duration="503.00" routeLength="3332.35" waitingTime="161.00" waitingCount="5" stopTime="0.00" timeLoss="237.42" rerouteNo="1" devices="tripinfo_vehicle26 routing_vehicle26" vType="evehicle" speedFactor="0.92" vaporized=""/>
    <tripinfo id="vehicle29" depart="57.00" departLane="E40_0" departPos="5.10" departSpeed="0.00" departDelay="57.00" arrival="556.00" arrivalLane="E9_0" arrivalPos="679.29" arrivalSpeed="11.74" duration="499.00" routeLength="3336.61" waitingTime="156.00" waitingCount="5" stopTime="0.00" timeLoss="236.53" rerouteNo="1" devices="tripinfo_vehicle29 routing_vehicle29" vType="evehicle" speedFactor="0.93" vaporized=""/>
    <tripinfo id="vehicle38" depart="75.00" departLane="E40_0" departPos="5.10" departSpeed="0.00" departDelay="75.00" arrival="556.00" arrivalLane="E9_1" arrivalPos="679.29" arrivalSpeed="15.16" duration="481.00" routeLength="3336.61" waitingTime="153.00" waitingCount="5" stopTime="0.00" timeLoss="258.92" rerouteNo="1" devices="tripinfo_vehicle38 routing_vehicle38" vType="evehicle" speedFactor="1.10" vaporized=""/>
    <tripinfo id="vehicle35" depart="69.00" departLane="E40_0" departPos="5.10" departSpeed="0.00" departDelay="69.00" arrival="557.00" arrivalLane="E9_0" arrivalPos="679.29" arrivalSpeed="13.82" duration="488.00" routeLength="3327.83" waitingTime="156.00" waitingCount="6" stopTime="0.00" timeLoss="249.42" rerouteNo="1" devices="tripinfo_vehicle35 routing_vehicle35" vType="evehicle" speedFactor="1.02" vaporized=""/>
    <tripinfo id="vehicle59" depart="117.00" departLane="E40_0" departPos="5.10" departSpeed="0.00" departDelay="117.00" arrival="561.00" arrivalLane="E9_0" arrivalPos="679.29" arrivalSpeed="13.33" duration="444.00" routeLength="3332.35" waitingTime="108.00" waitingCount="2" stopTime="0.00" timeLoss="192.85" rerouteNo="1" devices="tripinfo_vehicle59 routing_vehicle59" vType="evehicle" speedFactor="0.97" vaporized=""/>
    <tripinfo id="vehicle4" depart="6.00" departLane="E40_0" departPos="5.10" departSpeed="0.00" departDelay="6.00" arrival="564.00" arrivalLane="E9_0" arrivalPos="679.29" arrivalSpeed="13.52" duration="558.00" routeLength="4833.11" waitingTime="144.00" waitingCount="2" stopTime="0.00" timeLoss="217.59" rerouteNo="1" devices="tripinfo_vehicle4 routing_vehicle4" vType="DEFAULT_VEHTYPE" speedFactor="1.03" vaporized=""/>
    <tripinfo id="vehicle27" depart="27.00" departLane="E6_0" departPos="5.10" departSpeed="0.00" departDelay="27.00" arrival="566.00" arrivalLane="-E11_0" arrivalPos="81.80" arrivalSpeed="9.69" duration="539.00" routeLength="3979.22" waitingTime="0.00" waitingCount="0" stopTime="162.00" timeLoss="70.58" rerouteNo="1" devices="tripinfo_vehicle27 routing_vehicle27" vType="DEFAULT_VEHTYPE" speedFactor="0.95" vaporized=""/>
    <tripinfo id="vehicle56" depart="111.00" departLane="E40_0" departPos="5.10" departSpeed="0.00" departDelay="111.00" arrival="568.00" arrivalLane="E9_0" arrivalPos="679.29" arrivalSpeed="11.82" duration="457.00" routeLength="3327.83" waitingTime="98.00" waitingCount="4" stopTime="0.00" timeLoss="186.28" rerouteNo="1" devices="tripinfo_vehicle56 routing_vehicle56" vType="evehicle" speedFactor="0.90" vaporized=""/>
    <tripinfo id="vehicle41" depart="81.00" departLane="E40_0" departPos="5.10" departSpeed="0.00" departDelay="81.00" arrival="572.00" arrivalLane="E9_0" arrivalPos="679.29" arrivalSpeed="12.97" duration="491.00" routeLength="3336.61" waitingTime="164.00" waitingCount="3" stopTime="0.00" timeLoss="236.24" rerouteNo="1" devices="tripinfo_vehicle41 routing_vehicle41" vType="evehicle" speedFactor="0.96" vaporized=""/>
    <tripinfo id="vehicle7" depart="12.00" departLane="E40_0" departPos="5.10" departSpeed="0.00" departDelay="12.00" arrival="575.00" arrivalLane="E9_0" arrivalPos="679.29" arrivalSpeed="12.03" duration="563.00" routeLength="4827.98" waitingTime="90.00" waitingCount="1" stopTime="0.00" timeLoss="166.42" rerouteNo="1" devices="tripinfo_vehicle7 routing_vehicle7" vType="DEFAULT_VEHTYPE" speedFactor="0.89" vaporized=""/>
    <tripinfo id="vehicle22" depart="42.00" departLane="E40_0" departPos="5.10" departSpeed="0.00" departDelay="42.00" arrival="575.00" arrivalLane="E9_1" arrivalPos="679.29" arrivalSpeed="12.91" duration="533.00" routeLength="4827.98" waitingTime="71.00" waitingCount="1" stopTime="0.00" timeLoss="172.94" rerouteNo="1" devices="tripinfo_vehicle22 routing_vehicle22" vType="DEFAULT_VEHTYPE" speedFactor="0.97" vaporized=""/>
    <tripinfo id="vehicle19" depart="36.00" departLane="E40_0" departPos="5.10" departSpeed="0.00" departDelay="36.00" arrival="576.00" arrivalLane="E9_1" arrivalPos="679.29" arrivalSpeed="14.99" duration="540.00" routeLength="4833.11" waitingTime="156.00" waitingCount="4" stopTime="0.00" timeLoss="236.56" rerouteNo="1" devices="tripinfo_vehicle19 routing_vehicle19" vType="DEFAULT_VEHTYPE" speedFactor="1.16" vaporized=""/>
    <tripinfo id="vehicle37" depart="72.00" departLane="E40_0" departPos="5.10" departSpeed="0.00" departDelay="72.00" arrival="576.00" arrivalLane="E9_0" arrivalPos="679.29" arrivalSpeed="14.12" duration="504.00" routeLength="4830.49" waitingTime="91.00" waitingCount="2" stopTime="0.00" timeLoss="205.70" rerouteNo="1" devices="tripinfo_vehicle37 routing_vehicle37" vType="DEFAULT_VEHTYPE" speedFactor="1.18" vaporized=""/>
    <tripinfo id="vehicle51" depart="51.00" departLane="E6_0" departPos="5.10" departSpeed="0.00" departDelay="51.00" arrival="576.00" arrivalLane="-E11_0" arrivalPos="81.80" arrivalSpeed="11.74" duration="525.00" routeLength="3975.05" waitingTime="1.00" waitingCount="1" stopTime="196.00" timeLoss="81.22" rerouteNo="1" devices="tripinfo_vehicle51 routing_vehicle51" vType="DEFAULT_VEHTYPE" speedFactor="1.17" vaporized=""/>
    <tripinfo id="vehicle40" depart="77.00" departLane="E40_0" departPos="5.10" departSpeed="0.00" departDelay="77.00" arrival="578.00" arrivalLane="E9_0" arrivalPos="679.29" arrivalSpeed="14.11" duration="501.00" routeLength="4827.98" waitingTime="66.00" waitingCount="1" stopTime="0.00" timeLoss="160.34" rerouteNo="1" devices="tripinfo_vehicle40 routing_vehicle40" vType="DEFAULT_VEHTYPE" speedFactor="1.03" vaporized=""/>
    <tripinfo id="vehicle43" depart="84.00" departLane="E40_0" departPos="5.10" departSpeed="0.00" departDelay="84.00" arrival="580.00" arrivalLane="E9_0" arrivalPos="679.29" arrivalSpeed="13.64" duration="496.00" routeLength="4827.98" waitingTime="64.00" waitingCount="1" stopTime="0.00" timeLoss="157.05" rerouteNo="1" devices="tripinfo_vehicle43 routing_vehicle43" vType="DEFAULT_VEHTYPE" speedFactor="1.04" vaporized=""/>
    <tripinfo id="vehicle54" depart="54.00" departLane="E6_0" departPos="5.10" departSpeed="0.00" departDelay="54.00" arrival="583.00" arrivalLane="-E11_0" arrivalPos="81.80" arrivalSpeed="5.77" duration="529.00" routeLength="3979.22" waitingTime="0.00" waitingCount="0" stopTime="172.00" timeLoss="72.05" rerouteNo="1" devices="tripinfo_vehicle54 routing_vehicle54" vType="DEFAULT_VEHTYPE" speedFactor="1.00" vaporized=""/>
    <tripinfo id="vehicle71" depart="141.00" departLane="E40_0" departPos="5.10" departSpeed="0.00" departDelay="141.00" arrival="586.00" arrivalLane="E9_0" arrivalPos="679.29" arrivalSpeed="12.97" duration="445.00" routeLength="3332.35" waitingTime="110.00" waitingCount="2" stopTime="0.00" timeLoss="194.67" rerouteNo="1" devices="tripinfo_vehicle71 routing_vehicle71" vType="evehicle" speedFactor="0.97" vaporized=""/>
    <tripinfo id="vehicle77" depart="153.00" departLane="E40_0" departPos="5.10" departSpeed="0.00" departDelay="153.00" arrival="588.00" arrivalLane="E9_0" arrivalPos="679.29" arrivalSpeed="12.72" duration="435.00" routeLength="3332.35" waitingTime="109.00" waitingCount="2" stopTime="0.00" timeLoss="186.99" rerouteNo="1" devices="tripinfo_vehicle77 routing_vehicle77" vType="evehicle" speedFactor="0.98" vaporized=""/>
    <tripinfo id="vehicle42" depart="42.00" departLane="E6_0" departPos="5.10" departSpeed="0.00" departDelay="42.00" arrival="590.00" arrivalLane="-E11_0" arrivalPos="81.80" arrivalSpeed="12.22" duration="548.00" routeLength="3979.22" waitingTime="0.00" waitingCount="0" stopTime="216.00" timeLoss="66.17" rerouteNo="1" devices="tripinfo_vehicle42 routing_vehicle42" vType="DEFAULT_VEHTYPE" speedFactor="1.09" vaporized=""/>
    <tripinfo id="vehicle46" depart="90.00" departLane="E40_0" departPos="5.10" departSpeed="0.00" departDelay="90.00" arrival="590.00" arrivalLane="E9_0" arrivalPos="679.29" arrivalSpeed="12.86" duration="500.00" routeLength="4827.98" waitingTime="61.00" waitingCount="1" stopTime="0.00" timeLoss="148.85" rerouteNo="1" devices="tripinfo_vehicle46 routing_vehicle46" vType="DEFAULT_VEHTYPE" speedFactor="1.00" vaporized=""/>
    <tripinfo id="vehicle13" depart="24.00" departLane="E40_0" departPos="5.10" departSpeed="0.00" departDelay="24.00" arrival="591.00" arrivalLane="E9_1" arrivalPos="679.29" arrivalSpeed="15.10" duration="567.00" routeLength="4835.62" waitingTime="156.00" waitingCount="3" stopTime="0.00" timeLoss="254.60" rerouteNo="1" devices="tripinfo_vehicle13 routing_vehicle13" vType="DEFAULT_VEHTYPE" speedFactor="1.12" vaporized=""/>
    <tripinfo id="vehicle52" depart="102.00" departLane="E40_0" departPos="5.10" departSpeed="0.00" departDelay="102.00" arrival="592.00" arrivalLane="E9_0" arrivalPos="679.29" arrivalSpeed="13.56" duration="490.00" routeLength="4827.98" waitingTime="59.00" waitingCount="1" stopTime="0.00" timeLoss="145.20" rerouteNo="1" devices="tripinfo_vehicle52 routing_vehicle52" vType="DEFAULT_VEHTYPE" speedFactor="1.02" vaporized=""/>
    <tripinfo id="vehicle55" depart="108.00" departLane="E40_0" departPos="5.10" departSpeed="0.00" departDelay="108.00" arrival="595.00" arrivalLane="E9_0" arrivalPos="679.29" arrivalSpeed="13.06" duration="487.00" routeLength="4827.98" waitingTime="47.00" waitingCount="2" stopTime="0.00" timeLoss="134.80" rerouteNo="1" devices="tripinfo_vehicle55 routing_vehicle55" vType="DEFAULT_VEHTYPE" speedFactor="1.00" vaporized=""/>
    <tripinfo id="vehicle10" depart="18.00" departLane="E40_0" departPos="5.10" departSpeed="0.00" departDelay="18.00" arrival="596.00" arrivalLane="E9_1" arrivalPos="679.29" arrivalSpeed="14.70" duration="578.00" routeLength="4833.11" waitingTime="153.00" waitingCount="3" stopTime="0.00" timeLoss="255.87" rerouteNo="1" devices="tripinfo_vehicle10 routing_vehicle10" vType="DEFAULT_VEHTYPE" speedFactor="1.09" vaporized=""/>
    <tripinfo id="vehicle58" depart="114.00" departLane="E40_0" departPos="5.10" departSpeed="0.00" departDelay="114.00" arrival="597.00" arrivalLane="E9_0" arrivalPos="679.29" arrivalSpeed="14.19" duration="483.00" routeLength="4827.98" waitingTime="45.00" waitingCount="1" stopTime="0.00" timeLoss="140.67" rerouteNo="1" devices="tripinfo_vehicle58 routing_vehicle58" vType="DEFAULT_VEHTYPE" speedFactor="1.02" vaporized=""/>
    <tripinfo id="vehicle39" depart="39.00" departLane="E6_0" departPos="5.10" departSpeed="0.00" departDelay="39.00" arrival="602.00" arrivalLane="-E11_0" arrivalPos="81.80" arrivalSpeed="2.42" duration="563.00" routeLength="3979.22" waitingTime="1.00" waitingCount="1" stopTime="190.00" timeLoss="52.67" rerouteNo="1" devices="tripinfo_vehicle39 routing_vehicle39" vType="DEFAULT_VEHTYPE" speedFactor="0.90" vaporized=""/>
    <tripinfo id="vehicle24" depart="24.00" departLane="E6_0" departPos="5.10" departSpeed="0.00" departDelay="24.00" arrival="607.00" arrivalLane="-E11_0" arrivalPos="81.80" arrivalSpeed="7.62" duration="583.00" routeLength="3975.05" waitingTime="1.00" waitingCount="1" stopTime="196.00" timeLoss="41.03" rerouteNo="1" devices="tripinfo_vehicle24 routing_vehicle24" vType="DEFAULT_VEHTYPE" speedFactor="0.83" vaporized=""/>
    <tripinfo id="vehicle1" depart="0.00" departLane="E40_0" departPos="5.10" departSpeed="0.00" departDelay="0.00" arrival="609.00" arrivalLane="E9_1" arrivalPos="679.29" arrivalSpeed="11.78" duration="609.00" routeLength="4827.98" waitingTime="140.00" waitingCount="4" stopTime="0.00" timeLoss="235.89" rerouteNo="1" devices="tripinfo_vehicle1 routing_vehicle1" vType="DEFAULT_VEHTYPE" speedFactor="0.94" vaporized=""/>
    <tripinfo id="vehicle9" depart="9.00" departLane="E6_0" departPos="5.10" departSpeed="0.00" departDelay="9.00" arrival="609.00" arrivalLane="-E11_0" arrivalPos="81.80" arrivalSpeed="10.07" duration="600.00" routeLength="3975.05" waitingTime="0.00" waitingCount="0" stopTime="210.00" timeLoss="51.63" rerouteNo="1" devices="tripinfo_vehicle9 routing_vehicle9" vType="DEFAULT_VEHTYPE" speedFactor="0.86" vaporized=""/>
    <tripinfo id="vehicle47" depart="93.00" departLane="E40_0" departPos="5.10" departSpeed="0.00" departDelay="93.00" arrival="610.00" arrivalLane="E9_0" arrivalPos="679.29" arrivalSpeed="11.60" duration="517.00" routeLength="3336.61" waitingTime="169.00" waitingCount="3" stopTime="0.00" timeLoss="246.52" rerouteNo="1" devices="tripinfo_vehicle47 routing_vehicle47" vType="evehicle" speedFactor="0.90" vaporized=""/>
    <tripinfo id="vehicle63" depart="63.00" departLane="E6_0" departPos="5.10" departSpeed="0.00" departDelay="63.00" arrival="611.00" arrivalLane="-E11_0" arrivalPos="81.80" arrivalSpeed="3.51" duration="548.00" routeLength="3979.22" waitingTime="2.00" waitingCount="1" stopTime="200.00" timeLoss="56.67" rerouteNo="1" devices="tripinfo_vehicle63 routing_vehicle63" vType="DEFAULT_VEHTYPE" speedFactor="0.99" vaporized=""/>
    <tripinfo id="vehicle80" depart="159.00" departLane="E40_0" departPos="5.10" departSpeed="0.00" departDelay="159.00" arrival="611.00" arrivalLane="E9_1" arrivalPos="679.29" arrivalSpeed="13.93" duration="452.00" routeLength="3332.35" waitingTime="116.00" waitingCount="3" stopTime="0.00" timeLoss="217.03" rerouteNo="1" devices="tripinfo_vehicle80 routing_vehicle80" vType="evehicle" speedFactor="1.03" vaporized=""/>
    <tripinfo id="vehicle28" depart="54.00" departLane="E40_0" departPos="5.10" departSpeed="0.00" departDelay="54.00" arrival="612.00" arrivalLane="E9_0" arrivalPos="679.29" arrivalSpeed="15.43" duration="558.00" routeLength="4827.98" waitingTime="121.00" waitingCount="4" stopTime="0.00" timeLoss="247.91" rerouteNo="1" devices="tripinfo_vehicle28 routing_vehicle28" vType="DEFAULT_VEHTYPE" speedFactor="1.13" vaporized=""/>
    <tripinfo id="vehicle74" depart="147.00" departLane="E40_0" departPos="5.10" departSpeed="0.00" departDelay="147.00" arrival="616.00" arrivalLane="E9_0" arrivalPos="679.29" arrivalSpeed="12.91" duration="469.00" routeLength="3332.35" waitingTime="105.00" waitingCount="4" stopTime="0.00" timeLoss="213.79" rerouteNo="1" devices="tripinfo_vehicle74 routing_vehicle74" vType="evehicle" speedFactor="0.96" vaporized=""/>
    <tripinfo id="vehicle34" depart="66.00" departLane="E40_0" departPos="5.10" departSpeed="0.00" departDelay="66.00" arrival="617.00" arrivalLane="E9_1" arrivalPos="679.29" arrivalSpeed="12.62" duration="551.00" routeLength="4827.98" waitingTime="88.00" waitingCount="4" stopTime="0.00" timeLoss="198.42" rerouteNo="1" devices="tripinfo_vehicle34 routing_vehicle34" vType="DEFAULT_VEHTYPE" speedFactor="0.99" vaporized=""/>
    <tripinfo id="vehicle79" depart="156.00" departLane="E40_0" departPos="5.10" departSpeed="0.00" departDelay="156.00" arrival="618.00" arrivalLane="E9_0" arrivalPos="679.29" arrivalSpeed="14.29" duration="462.00" routeLength="4830.49" waitingTime="32.00" waitingCount="1" stopTime="0.00" timeLoss="139.16" rerouteNo="1" devices="tripinfo_vehicle79 routing_vehicle79" vType="DEFAULT_VEHTYPE" speedFactor="1.09" vaporized=""/>
    <tripinfo id="vehicle31" depart="60.00" departLane="E40_0" departPos="5.10" departSpeed="0.00" departDelay="60.00" arrival="619.00" arrivalLane="E9_0" arrivalPos="679.29" arrivalSpeed="15.85" duration="559.00" routeLength="4833.11" waitingTime="112.00" waitingCount="5" stopTime="0.00" timeLoss="255.01" rerouteNo="1" devices="tripinfo_vehicle31 routing_vehicle31" vType="DEFAULT_VEHTYPE" speedFactor="1.15" vaporized=""/>
    <tripinfo id="vehicle61" depart="120.00" departLane="E40_0" departPos="5.10" departSpeed="0.00" departDelay="120.00" arrival="619.00" arrivalLane="E9_1" arrivalPos="679.29" arrivalSpeed="15.41" duration="499.00" routeLength="4827.98" waitingTime="54.00" waitingCount="3" stopTime="0.00" timeLoss="185.85" rerouteNo="1" devices="tripinfo_vehicle61 routing_vehicle61" vType="DEFAULT_VEHTYPE" speedFactor="1.12" vaporized=""/>
    <tripinfo id="vehicle73" depart="144.00" departLane="E40_0" departPos="5.10" departSpeed="0.00" departDelay="144.00" arrival="624.00" arrivalLane="E9_0" arrivalPos="679.29" arrivalSpeed="13.70" duration="480.00" routeLength="4830.49" waitingTime="23.00" waitingCount="2" stopTime="0.00" timeLoss="147.39" rerouteNo="1" devices="tripinfo_vehicle73 routing_vehicle73" vType="DEFAULT_VEHTYPE" speedFactor="1.06" vaporized=""/>
    <tripinfo id="vehicle70" depart="138.00" departLane="E40_0" departPos="5.10" departSpeed="0.00" departDelay="138.00" arrival="631.00" arrivalLane="E9_0" arrivalPos="679.29" arrivalSpeed="13.63" duration="493.00" routeLength="4827.98" waitingTime="15.00" waitingCount="3" stopTime="0.00" timeLoss="149.80" rerouteNo="1" devices="tripinfo_vehicle70 routing_vehicle70" vType="DEFAULT_VEHTYPE" speedFactor="1.02" vaporized=""/>
    <tripinfo id="vehicle102" depart="102.00" departLane="E6_0" departPos="5.10" departSpeed="0.00" departDelay="102.00" arrival="632.00" arrivalLane="-E11_0" arrivalPos="81.80" arrivalSpeed="5.91" duration="530.00" routeLength="3975.05" waitingTime="4.00" waitingCount="2" stopTime="144.00" timeLoss="87.73" rerouteNo="1" devices="tripinfo_vehicle102 routing_vehicle102" vType="DEFAULT_VEHTYPE" speedFactor="0.97" vaporized=""/>
    <tripinfo id="vehicle36" depart="36.00" departLane="E6_0" departPos="5.10" departSpeed="0.00" departDelay="36.00" arrival="634.00" arrivalLane="-E11_0" arrivalPos="81.80" arrivalSpeed="8.90" duration="598.00" routeLength="4199.88" waitingTime="4.00" waitingCount="2" stopTime="169.00" timeLoss="112.11" rerouteNo="2" devices="tripinfo_vehicle36 routing_vehicle36" vType="DEFAULT_VEHTYPE" speedFactor="0.97" vaporized=""/>
    <tripinfo id="vehicle82" depart="162.00" departLane="E40_0" departPos="5.10" departSpeed="0.00" departDelay="162.00" arrival="634.00" arrivalLane="E9_0" arrivalPos="679.29" arrivalSpeed="13.76" duration="472.00" routeLength="4827.98" waitingTime="8.00" waitingCount="1" stopTime="0.00" timeLoss="126.82" rerouteNo="1" devices="tripinfo_vehicle82 routing_vehicle82" vType="DEFAULT_VEHTYPE" speedFactor="1.02" vaporized=""/>
    <tripinfo id="vehicle100" depart="198.00" departLane="E40_0" departPos="5.10" departSpeed="0.00" departDelay="198.00" arrival="636.00" arrivalLane="E9_1" arrivalPos="679.29" arrivalSpeed="14.07" duration="438.00" routeLength="4827.98" waitingTime="2.00" waitingCount="2" stopTime="0.00" timeLoss="108.78" rerouteNo="1" devices="tripinfo_vehicle100 routing_vehicle100" vType="DEFAULT_VEHTYPE" speedFactor="1.06" vaporized=""/>
    <tripinfo id="vehicle16" depart="30.00" departLane="E40_0" departPos="5.10" departSpeed="0.00" departDelay="30.00" arrival="637.00" arrivalLane="E9_0" arrivalPos="679.29" arrivalSpeed="11.37" duration="607.00" routeLength="4833.11" waitingTime="102.00" waitingCount="4" stopTime="0.00" timeLoss="206.77" rerouteNo="1" devices="tripinfo_vehicle16 routing_vehicle16" vType="DEFAULT_VEHTYPE" speedFactor="0.88" vaporized=""/>
    <tripinfo id="vehicle66" depart="66.00" departLane="E6_0" departPos="5.10" departSpeed="0.00" departDelay="66.00" arrival="637.00" arrivalLane="-E11_0" arrivalPos="81.80" arrivalSpeed="10.83" duration="571.00" routeLength="4199.88" waitingTime="8.00" waitingCount="1" stopTime="136.00" timeLoss="94.79" rerouteNo="2" devices="tripinfo_vehicle66 routing_vehicle66" vType="DEFAULT_VEHTYPE" speedFactor="0.91" vaporized=""/>
    <tripinfo id="vehicle15" depart="15.00" departLane="E6_0" departPos="5.10" departSpeed="0.00" departDelay="15.00" arrival="639.00" arrivalLane="-E11_0" arrivalPos="81.80" arrivalSpeed="11.95" duration="624.00" routeLength="3979.22" waitingTime="2.00" waitingCount="1" stopTime="266.00" timeLoss="44.13" rerouteNo="1" devices="tripinfo_vehicle15 routing_vehicle15" vType="DEFAULT_VEHTYPE" speedFactor="0.93" vaporized=""/>
    <tripinfo id="vehicle64" depart="126.00" departLane="E40_0" departPos="5.10" departSpeed="0.00" departDelay="126.00" arrival="640.00" arrivalLane="E9_0" arrivalPos="679.29" arrivalSpeed="12.03" duration="514.00" routeLength="4827.98" waitingTime="25.00" waitingCount="4" stopTime="0.00" timeLoss="139.29" rerouteNo="1" devices="tripinfo_vehicle64 routing_vehicle64" vType="DEFAULT_VEHTYPE" speedFactor="0.94" vaporized=""/>
    <tripinfo id="vehicle57" depart="57.00" departLane="E6_0" departPos="5.10" departSpeed="0.00" departDelay="57.00" arrival="641.00" arrivalLane="-E11_0" arrivalPos="81.80" arrivalSpeed="10.01" duration="584.00" routeLength="3975.05" waitingTime="25.00" waitingCount="1" stopTime="250.00" timeLoss="80.98" rerouteNo="1" devices="tripinfo_vehicle57 routing_vehicle57" vType="DEFAULT_VEHTYPE" speedFactor="1.14" vaporized=""/>
    <tripinfo id="vehicle85" depart="168.00" departLane="E40_0" departPos="5.10" departSpeed="0.00" departDelay="168.00" arrival="642.00" arrivalLane="E9_0" arrivalPos="679.29" arrivalSpeed="12.32" duration="474.00" routeLength="4827.98" waitingTime="4.00" waitingCount="2" stopTime="0.00" timeLoss="114.91" rerouteNo="1" devices="tripinfo_vehicle85 routing_vehicle85" vType="DEFAULT_VEHTYPE" speedFactor="0.98" vaporized=""/>
    <tripinfo id="vehicle106" depart="210.00" departLane="E40_0" departPos="5.10" departSpeed="0.00" departDelay="210.00" arrival="643.00" arrivalLane="E9_1" arrivalPos="679.29" arrivalSpeed="13.11" duration="433.00" routeLength="4827.98" waitingTime="0.00" waitingCount="0" stopTime="0.00" timeLoss="86.93" rerouteNo="1" devices="tripinfo_vehicle106 routing_vehicle106" vType="DEFAULT_VEHTYPE" speedFactor="1.01" vaporized=""/>