<?xml version="1.0" encoding="UTF-8"?>

<!-- generated on 2022-12-08 18:14:00 by Eclipse SUMO GUI Version 1.15.0
<configuration xmlns:xsi="http://www.w3.org/2001/XMLSchema-instance" xsi:noNamespaceSchemaLocation="http://sumo.dlr.de/xsd/sumoConfiguration.xsd">

    <input>
        <net-file value="simple_uvar.net.xml"/>
        <route-files value="simple_uvar.rou.xml"/>
        <additional-files value="simple_uvar_parking_lots.xml"/>
    </input>

    <output>
        <tripinfo-output value="tripinfo.xml"/>
    </output>

    <time>
        <begin value="0"/>
        <end value="10000"/>
    </time>

    <traci_server>
        <remote-port value="51734"/>
    </traci_server>

    <gui_only>
        <gui-settings-file value="simple_uvar.settings.xml"/>
    </gui_only>

</configuration>
-->

<tripinfos xmlns:xsi="http://www.w3.org/2001/XMLSchema-instance" xsi:noNamespaceSchemaLocation="http://sumo.dlr.de/xsd/tripinfo_file.xsd">
    <tripinfo id="vehicle0" depart="0.00" departLane="E6_0" departPos="5.10" departSpeed="0.00" departDelay="0.00" arrival="333.00" arrivalLane="-E11_0" arrivalPos="81.80" arrivalSpeed="13.63" duration="333.00" routeLength="3979.22" waitingTime="2.00" waitingCount="1" stopTime="22.00" timeLoss="37.24" rerouteNo="1" devices="tripinfo_vehicle0 routing_vehicle0" vType="DEFAULT_VEHTYPE" speedFactor="1.06" vaporized=""/>
    <tripinfo id="vehicle3" depart="3.00" departLane="E6_0" departPos="5.10" departSpeed="0.00" departDelay="3.00" arrival="335.00" arrivalLane="-E11_0" arrivalPos="81.80" arrivalSpeed="14.94" duration="332.00" routeLength="3979.22" waitingTime="2.00" waitingCount="1" stopTime="21.00" timeLoss="43.43" rerouteNo="1" devices="tripinfo_vehicle3 routing_vehicle3" vType="DEFAULT_VEHTYPE" speedFactor="1.08" vaporized=""/>
    <tripinfo id="vehicle6" depart="6.00" departLane="E6_0" departPos="5.10" departSpeed="0.00" departDelay="6.00" arrival="342.00" arrivalLane="-E11_0" arrivalPos="81.80" arrivalSpeed="13.81" duration="336.00" routeLength="3979.22" waitingTime="2.00" waitingCount="1" stopTime="22.00" timeLoss="36.24" rerouteNo="1" devices="tripinfo_vehicle6 routing_vehicle6" vType="DEFAULT_VEHTYPE" speedFactor="1.05" vaporized=""/>
    <tripinfo id="vehicle2" depart="3.00" departLane="E40_0" departPos="5.10" departSpeed="0.00" departDelay="3.00" arrival="345.00" arrivalLane="E9_0" arrivalPos="679.29" arrivalSpeed="12.77" duration="342.00" routeLength="3336.61" waitingTime="66.00" waitingCount="1" stopTime="0.00" timeLoss="99.95" rerouteNo="1" devices="tripinfo_vehicle2 routing_vehicle2" vType="evehicle" speedFactor="1.01" vaporized=""/>
    <tripinfo id="vehicle12" depart="12.00" departLane="E6_0" departPos="5.10" departSpeed="0.00" departDelay="12.00" arrival="346.00" arrivalLane="-E11_0" arrivalPos="81.80" arrivalSpeed="14.09" duration="334.00" routeLength="3979.22" waitingTime="1.00" waitingCount="1" stopTime="20.00" timeLoss="37.86" rerouteNo="1" devices="tripinfo_vehicle12 routing_vehicle12" vType="DEFAULT_VEHTYPE" speedFactor="1.05" vaporized=""/>
    <tripinfo id="vehicle30" depart="30.00" departLane="E6_0" departPos="5.10" departSpeed="0.00" departDelay="30.00" arrival="352.00" arrivalLane="-E11_0" arrivalPos="81.80" arrivalSpeed="14.34" duration="322.00" routeLength="3979.22" waitingTime="0.00" waitingCount="0" stopTime="20.00" timeLoss="55.63" rerouteNo="1" devices="tripinfo_vehicle30 routing_vehicle30" vType="DEFAULT_VEHTYPE" speedFactor="1.18" vaporized=""/>
    <tripinfo id="vehicle8" depart="15.00" departLane="E40_0" departPos="5.10" departSpeed="0.00" departDelay="15.00" arrival="415.00" arrivalLane="E9_0" arrivalPos="679.29" arrivalSpeed="12.17" duration="400.00" routeLength="3332.35" waitingTime="87.00" waitingCount="2" stopTime="0.00" timeLoss="139.74" rerouteNo="1" devices="tripinfo_vehicle8 routing_vehicle8" vType="evehicle" speedFactor="0.94" vaporized=""/>
    <tripinfo id="vehicle15" depart="15.00" departLane="E6_0" departPos="5.10" departSpeed="0.00" departDelay="15.00" arrival="423.00" arrivalLane="-E11_0" arrivalPos="81.80" arrivalSpeed="11.81" duration="408.00" routeLength="3979.22" waitingTime="23.00" waitingCount="1" stopTime="43.00" timeLoss="52.50" rerouteNo="1" devices="tripinfo_vehicle15 routing_vehicle15" vType="DEFAULT_VEHTYPE" speedFactor="0.93" vaporized=""/>
    <tripinfo id="vehicle18" depart="18.00" departLane="E6_0" departPos="5.10" departSpeed="0.00" departDelay="18.00" arrival="425.00" arrivalLane="-E11_0" arrivalPos="81.80" arrivalSpeed="11.92" duration="407.00" routeLength="3979.22" waitingTime="24.00" waitingCount="1" stopTime="44.00" timeLoss="52.96" rerouteNo="1" devices="tripinfo_vehicle18 routing_vehicle18" vType="DEFAULT_VEHTYPE" speedFactor="0.94" vaporized=""/>
    <tripinfo id="vehicle45" depart="45.00" departLane="E6_0" departPos="5.10" departSpeed="0.00" departDelay="45.00" arrival="427.00" arrivalLane="-E11_0" arrivalPos="81.80" arrivalSpeed="13.35" duration="382.00" routeLength="3975.05" waitingTime="18.00" waitingCount="1" stopTime="38.00" timeLoss="78.16" rerouteNo="1" devices="tripinfo_vehicle45 routing_vehicle45" vType="DEFAULT_VEHTYPE" speedFactor="1.09" vaporized=""/>
    <tripinfo id="vehicle27" depart="27.00" departLane="E6_0" departPos="5.10" departSpeed="0.00" departDelay="27.00" arrival="430.00" arrivalLane="-E11_0" arrivalPos="81.80" arrivalSpeed="12.06" duration="403.00" routeLength="3979.22" waitingTime="10.00" waitingCount="1" stopTime="29.00" timeLoss="68.89" rerouteNo="1" devices="tripinfo_vehicle27 routing_vehicle27" vType="DEFAULT_VEHTYPE" speedFactor="0.95" vaporized=""/>
    <tripinfo id="vehicle9" depart="9.00" departLane="E6_0" departPos="5.10" departSpeed="0.00" departDelay="9.00" arrival="432.00" arrivalLane="-E11_0" arrivalPos="81.80" arrivalSpeed="11.46" duration="423.00" routeLength="3979.22" waitingTime="20.00" waitingCount="1" stopTime="40.00" timeLoss="45.31" rerouteNo="1" devices="tripinfo_vehicle9 routing_vehicle9" vType="DEFAULT_VEHTYPE" speedFactor="0.86" vaporized=""/>
    <tripinfo id="vehicle36" depart="36.00" departLane="E6_0" departPos="5.10" departSpeed="0.00" departDelay="36.00" arrival="435.00" arrivalLane="-E11_0" arrivalPos="81.80" arrivalSpeed="12.10" duration="399.00" routeLength="3975.05" waitingTime="11.00" waitingCount="1" stopTime="31.00" timeLoss="69.88" rerouteNo="1" devices="tripinfo_vehicle36 routing_vehicle36" vType="DEFAULT_VEHTYPE" speedFactor="0.97" vaporized=""/>
    <tripinfo id="vehicle42" depart="42.00" departLane="E6_0" departPos="5.10" departSpeed="0.00" departDelay="42.00" arrival="438.00" arrivalLane="-E11_0" arrivalPos="81.80" arrivalSpeed="13.95" duration="396.00" routeLength="3979.22" waitingTime="21.00" waitingCount="1" stopTime="41.00" timeLoss="89.41" rerouteNo="1" devices="tripinfo_vehicle42 routing_vehicle42" vType="DEFAULT_VEHTYPE" speedFactor="1.09" vaporized=""/>
    <tripinfo id="vehicle57" depart="57.00" departLane="E6_0" departPos="5.10" departSpeed="0.00" departDelay="57.00" arrival="441.00" arrivalLane="-E11_0" arrivalPos="81.80" arrivalSpeed="10.72" duration="384.00" routeLength="3975.05" waitingTime="13.00" waitingCount="2" stopTime="32.00" timeLoss="98.32" rerouteNo="1" devices="tripinfo_vehicle57 routing_vehicle57" vType="DEFAULT_VEHTYPE" speedFactor="1.14" vaporized=""/>
    <tripinfo id="vehicle39" depart="39.00" departLane="E6_0" departPos="5.10" departSpeed="0.00" departDelay="39.00" arrival="444.00" arrivalLane="-E11_0" arrivalPos="81.80" arrivalSpeed="11.33" duration="405.00" routeLength="3979.22" waitingTime="3.00" waitingCount="1" stopTime="23.00" timeLoss="59.30" rerouteNo="1" devices="tripinfo_vehicle39 routing_vehicle39" vType="DEFAULT_VEHTYPE" speedFactor="0.90" vaporized=""/>
    <tripinfo id="vehicle60" depart="60.00" departLane="E6_0" departPos="5.10" departSpeed="0.00" departDelay="60.00" arrival="447.00" arrivalLane="-E11_0" arrivalPos="81.80" arrivalSpeed="10.03" duration="387.00" routeLength="3979.22" waitingTime="11.00" waitingCount="1" stopTime="31.00" timeLoss="87.42" rerouteNo="1" devices="tripinfo_vehicle60 routing_vehicle60" vType="DEFAULT_VEHTYPE" speedFactor="1.08" vaporized=""/>
    <tripinfo id="vehicle14" depart="27.00" departLane="E40_0" departPos="5.10" departSpeed="0.00" departDelay="27.00" arrival="454.00" arrivalLane="E9_0" arrivalPos="679.29" arrivalSpeed="12.49" duration="427.00" routeLength="3332.35" waitingTime="120.00" waitingCount="4" stopTime="0.00" timeLoss="180.71" rerouteNo="1" devices="tripinfo_vehicle14 routing_vehicle14" vType="evehicle" speedFactor="0.99" vaporized=""/>
    <tripinfo id="vehicle33" depart="33.00" departLane="E6_0" departPos="5.10" departSpeed="0.00" departDelay="33.00" arrival="512.00" arrivalLane="-E11_0" arrivalPos="81.80" arrivalSpeed="7.34" duration="479.00" routeLength="3975.05" waitingTime="124.00" waitingCount="1" stopTime="144.00" timeLoss="88.30" rerouteNo="1" devices="tripinfo_vehicle33 routing_vehicle33" vType="DEFAULT_VEHTYPE" speedFactor="1.17" vaporized=""/>
    <tripinfo id="vehicle54" depart="54.00" departLane="E6_0" departPos="5.10" departSpeed="0.00" departDelay="54.00" arrival="514.00" arrivalLane="-E11_0" arrivalPos="81.80" arrivalSpeed="9.65" duration="460.00" routeLength="3979.22" waitingTime="55.00" waitingCount="2" stopTime="74.00" timeLoss="97.71" rerouteNo="1" devices="tripinfo_vehicle54 routing_vehicle54" vType="DEFAULT_VEHTYPE" speedFactor="1.00" vaporized=""/>
    <tripinfo id="vehicle51" depart="51.00" departLane="E6_0" departPos="5.10" departSpeed="0.00" departDelay="51.00" arrival="516.00" arrivalLane="-E11_0" arrivalPos="81.80" arrivalSpeed="12.00" duration="465.00" routeLength="3975.05" waitingTime="106.00" waitingCount="1" stopTime="126.00" timeLoss="90.88" rerouteNo="1" devices="tripinfo_vehicle51 routing_vehicle51" vType="DEFAULT_VEHTYPE" speedFactor="1.17" vaporized=""/>
    <tripinfo id="vehicle21" depart="21.00" departLane="E6_0" departPos="5.10" departSpeed="0.00" departDelay="21.00" arrival="518.00" arrivalLane="-E11_0" arrivalPos="81.80" arrivalSpeed="11.56" duration="497.00" routeLength="3979.22" waitingTime="141.00" waitingCount="1" stopTime="161.00" timeLoss="48.91" rerouteNo="1" devices="tripinfo_vehicle21 routing_vehicle21" vType="DEFAULT_VEHTYPE" speedFactor="1.01" vaporized=""/>
    <tripinfo id="vehicle24" depart="24.00" departLane="E6_0" departPos="5.10" departSpeed="0.00" departDelay="24.00" arrival="520.00" arrivalLane="-E11_0" arrivalPos="81.80" arrivalSpeed="10.45" duration="496.00" routeLength="3979.22" waitingTime="73.00" waitingCount="1" stopTime="93.00" timeLoss="52.08" rerouteNo="1" devices="tripinfo_vehicle24 routing_vehicle24" vType="DEFAULT_VEHTYPE" speedFactor="0.83" vaporized=""/>
    <tripinfo id="vehicle11" depart="21.00" departLane="E40_0" departPos="5.10" departSpeed="0.00" departDelay="21.00" arrival="521.00" arrivalLane="E9_0" arrivalPos="679.29" arrivalSpeed="13.70" duration="500.00" routeLength="3336.61" waitingTime="175.00" waitingCount="6" stopTime="0.00" timeLoss="261.99" rerouteNo="1" devices="tripinfo_vehicle11 routing_vehicle11" vType="evehicle" speedFactor="1.03" vaporized=""/>
    <tripinfo id="vehicle69" depart="69.00" departLane="E6_0" departPos="5.10" departSpeed="0.00" departDelay="69.00" arrival="522.00" arrivalLane="-E11_0" arrivalPos="81.80" arrivalSpeed="13.36" duration="453.00" routeLength="3979.22" waitingTime="69.00" waitingCount="1" stopTime="89.00" timeLoss="80.47" rerouteNo="1" devices="tripinfo_vehicle69 routing_vehicle69" vType="DEFAULT_VEHTYPE" speedFactor="1.02" vaporized=""/>
    <tripinfo id="vehicle96" depart="96.00" departLane="E6_0" departPos="5.10" departSpeed="0.00" departDelay="96.00" arrival="524.00" arrivalLane="-E11_0" arrivalPos="81.80" arrivalSpeed="12.79" duration="428.00" routeLength="3979.22" waitingTime="8.00" waitingCount="4" stopTime="21.00" timeLoss="119.09" rerouteNo="1" devices="tripinfo_vehicle96 routing_vehicle96" vType="DEFAULT_VEHTYPE" speedFactor="1.01" vaporized=""/>
    <tripinfo id="vehicle93" depart="93.00" departLane="E6_0" departPos="5.10" departSpeed="0.00" departDelay="93.00" arrival="526.00" arrivalLane="-E11_0" arrivalPos="81.80" arrivalSpeed="7.23" duration="433.00" routeLength="3979.22" waitingTime="10.00" waitingCount="3" stopTime="27.00" timeLoss="95.14" rerouteNo="1" devices="tripinfo_vehicle93 routing_vehicle93" vType="DEFAULT_VEHTYPE" speedFactor="0.92" vaporized=""/>
    <tripinfo id="vehicle17" depart="33.00" departLane="E40_0" departPos="5.10" departSpeed="0.00" departDelay="33.00" arrival="528.00" arrivalLane="E9_0" arrivalPos="679.29" arrivalSpeed="12.68" duration="495.00" routeLength="3332.35" waitingTime="170.00" waitingCount="4" stopTime="0.00" timeLoss="235.54" rerouteNo="1" devices="tripinfo_vehicle17 routing_vehicle17" vType="evehicle" speedFactor="0.94" vaporized=""/>
    <tripinfo id="vehicle20" depart="39.00" departLane="E40_0" departPos="5.10" departSpeed="0.00" departDelay="39.00" arrival="528.00" arrivalLane="E9_1" arrivalPos="679.29" arrivalSpeed="14.10" duration="489.00" routeLength="3336.61" waitingTime="171.00" waitingCount="5" stopTime="0.00" timeLoss="249.37" rerouteNo="1" devices="tripinfo_vehicle20 routing_vehicle20" vType="evehicle" speedFactor="1.02" vaporized=""/>
    <tripinfo id="vehicle78" depart="78.00" departLane="E6_0" departPos="5.10" departSpeed="0.00" departDelay="78.00" arrival="528.00" arrivalLane="-E11_0" arrivalPos="81.80" arrivalSpeed="10.38" duration="450.00" routeLength="3975.05" waitingTime="27.00" waitingCount="1" stopTime="47.00" timeLoss="114.39" rerouteNo="1" devices="tripinfo_vehicle78 routing_vehicle78" vType="DEFAULT_VEHTYPE" speedFactor="1.01" vaporized=""/>
    <tripinfo id="vehicle63" depart="63.00" departLane="E6_0" departPos="5.10" departSpeed="0.00" departDelay="63.00" arrival="529.00" arrivalLane="-E11_0" arrivalPos="81.80" arrivalSpeed="9.48" duration="466.00" routeLength="3975.05" waitingTime="67.00" waitingCount="3" stopTime="84.00" timeLoss="87.90" rerouteNo="1" devices="tripinfo_vehicle63 routing_vehicle63" vType="DEFAULT_VEHTYPE" speedFactor="0.99" vaporized=""/>
    <tripinfo id="vehicle108" depart="108.00" departLane="E6_0" departPos="5.10" departSpeed="0.00" departDelay="108.00" arrival="530.00" arrivalLane="-E11_0" arrivalPos="81.80" arrivalSpeed="1.79" duration="422.00" routeLength="3979.22" waitingTime="4.00" waitingCount="2" stopTime="23.00" timeLoss="126.81" rerouteNo="1" devices="tripinfo_vehicle108 routing_vehicle108" vType="DEFAULT_VEHTYPE" speedFactor="1.06" vaporized=""/>
    <tripinfo id="vehicle5" depart="9.00" departLane="E40_0" departPos="5.10" departSpeed="0.00" departDelay="9.00" arrival="531.00" arrivalLane="E9_0" arrivalPos="679.29" arrivalSpeed="11.36" duration="522.00" routeLength="3336.61" waitingTime="174.00" waitingCount="5" stopTime="0.00" timeLoss="227.99" rerouteNo="1" devices="tripinfo_vehicle5 routing_vehicle5" vType="evehicle" speedFactor="0.83" vaporized=""/>
    <tripinfo id="vehicle84" depart="84.00" departLane="E6_0" departPos="5.10" departSpeed="0.00" departDelay="84.00" arrival="532.00" arrivalLane="-E11_0" arrivalPos="81.80" arrivalSpeed="10.54" duration="448.00" routeLength="3975.05" waitingTime="74.00" waitingCount="2" stopTime="93.00" timeLoss="102.38" rerouteNo="1" devices="tripinfo_vehicle84 routing_vehicle84" vType="DEFAULT_VEHTYPE" speedFactor="1.15" vaporized=""/>
    <tripinfo id="vehicle102" depart="102.00" departLane="E6_0" departPos="5.10" departSpeed="0.00" departDelay="102.00" arrival="534.00" arrivalLane="-E11_0" arrivalPos="81.80" arrivalSpeed="11.57" duration="432.00" routeLength="3979.22" waitingTime="7.00" waitingCount="2" stopTime="26.00" timeLoss="107.71" rerouteNo="1" devices="tripinfo_vehicle102 routing_vehicle102" vType="DEFAULT_VEHTYPE" speedFactor="0.97" vaporized=""/>
    <tripinfo id="vehicle48" depart="48.00" departLane="E6_0" departPos="5.10" departSpeed="0.00" departDelay="48.00" arrival="536.00" arrivalLane="-E11_0" arrivalPos="81.80" arrivalSpeed="12.18" duration="488.00" routeLength="3979.22" waitingTime="66.00" waitingCount="1" stopTime="86.00" timeLoss="70.79" rerouteNo="1" devices="tripinfo_vehicle48 routing_vehicle48" vType="DEFAULT_VEHTYPE" speedFactor="0.88" vaporized=""/>
    <tripinfo id="vehicle81" depart="81.00" departLane="E6_0" departPos="5.10" departSpeed="0.00" departDelay="81.00" arrival="538.00" arrivalLane="-E11_0" arrivalPos="81.80" arrivalSpeed="3.27" duration="457.00" routeLength="3979.22" waitingTime="21.00" waitingCount="2" stopTime="36.00" timeLoss="129.93" rerouteNo="1" devices="tripinfo_vehicle81 routing_vehicle81" vType="DEFAULT_VEHTYPE" speedFactor="1.00" vaporized=""/>
    <tripinfo id="vehicle90" depart="90.00" departLane="E6_0" departPos="5.10" departSpeed="0.00" departDelay="90.00" arrival="540.00" arrivalLane="-E11_0" arrivalPos="81.80" arrivalSpeed="7.02" duration="450.00" routeLength="3975.05" waitingTime="30.00" waitingCount="1" stopTime="50.00" timeLoss="115.35" rerouteNo="1" devices="tripinfo_vehicle90 routing_vehicle90" vType="DEFAULT_VEHTYPE" speedFactor="1.02" vaporized=""/>
    <tripinfo id="vehicle66" depart="66.00" departLane="E6_0" departPos="5.10" departSpeed="0.00" departDelay="66.00" arrival="543.00" arrivalLane="-E11_0" arrivalPos="81.80" arrivalSpeed="8.56" duration="477.00" routeLength="3975.05" waitingTime="56.00" waitingCount="1" stopTime="76.00" timeLoss="81.39" rerouteNo="1" devices="tripinfo_vehicle66 routing_vehicle66" vType="DEFAULT_VEHTYPE" speedFactor="0.91" vaporized=""/>
    <tripinfo id="vehicle23" depart="45.00" departLane="E40_0" departPos="5.10" departSpeed="0.00" departDelay="45.00" arrival="544.00" arrivalLane="E9_0" arrivalPos="679.29" arrivalSpeed="12.35" duration="499.00" routeLength="3332.35" waitingTime="160.00" waitingCount="5" stopTime="0.00" timeLoss="225.08" rerouteNo="1" devices="tripinfo_vehicle23 routing_vehicle23" vType="evehicle" speedFactor="0.89" vaporized=""/>
    <tripinfo id="vehicle26" depart="51.00" departLane="E40_0" departPos="5.10" departSpeed="0.00" departDelay="51.00" arrival="544.00" arrivalLane="E9_1" arrivalPos="679.29" arrivalSpeed="11.97" duration="493.00" routeLength="3336.61" waitingTime="154.00" waitingCount="5" stopTime="0.00" timeLoss="226.08" rerouteNo="1" devices="tripinfo_vehicle26 routing_vehicle26" vType="evehicle" speedFactor="0.92" vaporized=""/>
    <tripinfo id="vehicle38" depart="75.00" departLane="E40_0" departPos="5.10" departSpeed="0.00" departDelay="75.00" arrival="545.00" arrivalLane="E9_1" arrivalPos="679.29" arrivalSpeed="13.69" duration="470.00" routeLength="3327.83" waitingTime="150.00" waitingCount="4" stopTime="0.00" timeLoss="249.34" rerouteNo="1" devices="tripinfo_vehicle38 routing_vehicle38" vType="evehicle" speedFactor="1.10" vaporized=""/>
    <tripinfo id="vehicle114" depart="114.00" departLane="E6_0" departPos="5.10" departSpeed="0.00" departDelay="114.00" arrival="545.00" arrivalLane="-E11_0" arrivalPos="81.80" arrivalSpeed="11.79" duration="431.00" routeLength="3975.05" waitingTime="3.00" waitingCount="1" stopTime="23.00" timeLoss="140.47" rerouteNo="1" devices="tripinfo_vehicle114 routing_vehicle114" vType="DEFAULT_VEHTYPE" speedFactor="1.10" vaporized=""/>
    <tripinfo id="vehicle32" depart="63.00" departLane="E40_0" departPos="5.10" departSpeed="0.00" departDelay="63.00" arrival="546.00" arrivalLane="E9_0" arrivalPos="679.29" arrivalSpeed="13.41" duration="483.00" routeLength="3332.09" waitingTime="153.00" waitingCount="5" stopTime="0.00" timeLoss="239.43" rerouteNo="1" devices="tripinfo_vehicle32 routing_vehicle32" vType="evehicle" speedFactor="1.01" vaporized=""/>
    <tripinfo id="vehicle75" depart="75.00" departLane="E6_0" departPos="5.10" departSpeed="0.00" departDelay="75.00" arrival="546.00" arrivalLane="-E11_0" arrivalPos="81.80" arrivalSpeed="10.63" duration="471.00" routeLength="3979.22" waitingTime="68.00" waitingCount="1" stopTime="88.00" timeLoss="87.95" rerouteNo="1" devices="tripinfo_vehicle75 routing_vehicle75" vType="DEFAULT_VEHTYPE" speedFactor="0.98" vaporized=""/>
    <tripinfo id="vehicle35" depart="69.00" departLane="E40_0" departPos="5.10" departSpeed="0.00" departDelay="69.00" arrival="547.00" arrivalLane="E9_1" arrivalPos="679.29" arrivalSpeed="13.86" duration="478.00" routeLength="3336.61" waitingTime="163.00" waitingCount="4" stopTime="0.00" timeLoss="238.94" rerouteNo="1" devices="tripinfo_vehicle35 routing_vehicle35" vType="evehicle" speedFactor="1.02" vaporized=""/>
    <tripinfo id="vehicle29" depart="57.00" departLane="E40_0" departPos="5.10" departSpeed="0.00" departDelay="57.00" arrival="548.00" arrivalLane="E9_0" arrivalPos="679.29" arrivalSpeed="11.68" duration="491.00" routeLength="3332.35" waitingTime="151.00" waitingCount="5" stopTime="0.00" timeLoss="228.55" rerouteNo="1" devices="tripinfo_vehicle29 routing_vehicle29" vType="evehicle" speedFactor="0.93" vaporized=""/>
    <tripinfo id="vehicle126" depart="126.00" departLane="E6_0" departPos="5.10" departSpeed="0.00" departDelay="126.00" arrival="548.00" arrivalLane="-E11_0" arrivalPos="81.80" arrivalSpeed="12.24" duration="422.00" routeLength="3979.22" waitingTime="6.00" waitingCount="1" stopTime="25.00" timeLoss="116.58" rerouteNo="1" devices="tripinfo_vehicle126 routing_vehicle126" vType="DEFAULT_VEHTYPE" speedFactor="1.03" vaporized=""/>
    <tripinfo id="vehicle4" depart="6.00" departLane="E40_0" departPos="5.10" departSpeed="0.00" departDelay="6.00" arrival="549.00" arrivalLane="E9_1" arrivalPos="679.29" arrivalSpeed="13.15" duration="543.00" routeLength="4833.11" waitingTime="131.00" waitingCount="5" stopTime="0.00" timeLoss="201.66" rerouteNo="1" devices="tripinfo_vehicle4 routing_vehicle4" vType="DEFAULT_VEHTYPE" speedFactor="1.03" vaporized=""/>
    <tripinfo id="vehicle87" depart="87.00" departLane="E6_0" departPos="5.10" departSpeed="0.00" departDelay="87.00" arrival="551.00" arrivalLane="-E11_0" arrivalPos="81.80" arrivalSpeed="9.63" duration="464.00" routeLength="3979.22" waitingTime="57.00" waitingCount="1" stopTime="77.00" timeLoss="108.81" rerouteNo="1" devices="tripinfo_vehicle87 routing_vehicle87" vType="DEFAULT_VEHTYPE" speedFactor="1.04" vaporized=""/>
    <tripinfo id="vehicle120" depart="120.00" departLane="E6_0" departPos="5.10" departSpeed="0.00" departDelay="120.00" arrival="553.00" arrivalLane="-E11_0" arrivalPos="81.80" arrivalSpeed="10.08" duration="433.00" routeLength="3979.22" waitingTime="3.00" waitingCount="1" stopTime="23.00" timeLoss="102.99" rerouteNo="1" devices="tripinfo_vehicle120 routing_vehicle120" vType="DEFAULT_VEHTYPE" speedFactor="0.94" vaporized=""/>
    <tripinfo id="vehicle62" depart="122.00" departLane="E40_0" departPos="5.10" departSpeed="0.00" departDelay="122.00" arrival="554.00" arrivalLane="E9_0" arrivalPos="679.29" arrivalSpeed="13.22" duration="432.00" routeLength="3332.35" waitingTime="94.00" waitingCount="3" stopTime="0.00" timeLoss="191.17" rerouteNo="1" devices="tripinfo_vehicle62 routing_vehicle62" vType="evehicle" speedFactor="1.02" vaporized=""/>
    <tripinfo id="vehicle13" depart="24.00" departLane="E40_0" departPos="5.10" departSpeed="0.00" departDelay="24.00" arrival="555.00" arrivalLane="E9_1" arrivalPos="679.29" arrivalSpeed="14.77" duration="531.00" routeLength="4833.11" waitingTime="129.00" waitingCount="4" stopTime="0.00" timeLoss="218.56" rerouteNo="1" devices="tripinfo_vehicle13 routing_vehicle13" vType="DEFAULT_VEHTYPE" speedFactor="1.12" vaporized=""/>
    <tripinfo id="vehicle72" depart="72.00" departLane="E6_0" departPos="5.10" departSpeed="0.00" departDelay="72.00" arrival="556.00" arrivalLane="-E11_0" arrivalPos="81.80" arrivalSpeed="9.72" duration="484.00" routeLength="3979.22" waitingTime="68.00" waitingCount="2" stopTime="87.00" timeLoss="87.66" rerouteNo="1" devices="tripinfo_vehicle72 routing_vehicle72" vType="DEFAULT_VEHTYPE" speedFactor="0.94" vaporized=""/>
    <tripinfo id="vehicle56" depart="110.00" departLane="E40_0" departPos="5.10" departSpeed="0.00" departDelay="110.00" arrival="558.00" arrivalLane="E9_0" arrivalPos="679.29" arrivalSpeed="12.43" duration="448.00" routeLength="3332.35" waitingTime="97.00" waitingCount="4" stopTime="0.00" timeLoss="176.09" rerouteNo="1" devices="tripinfo_vehicle56 routing_vehicle56" vType="evehicle" speedFactor="0.90" vaporized=""/>
    <tripinfo id="vehicle41" depart="81.00" departLane="E40_0" departPos="5.10" departSpeed="0.00" departDelay="81.00" arrival="559.00" arrivalLane="E9_1" arrivalPos="679.29" arrivalSpeed="12.68" duration="478.00" routeLength="3336.61" waitingTime="151.00" waitingCount="4" stopTime="0.00" timeLoss="223.33" rerouteNo="1" devices="tripinfo_vehicle41 routing_vehicle41" vType="evehicle" speedFactor="0.96" vaporized=""/>
    <tripinfo id="vehicle99" depart="99.00" departLane="E6_0" departPos="5.10" departSpeed="0.00" departDelay="99.00" arrival="560.00" arrivalLane="-E11_0" arrivalPos="81.80" arrivalSpeed="9.27" duration="461.00" routeLength="3979.22" waitingTime="56.00" waitingCount="1" stopTime="76.00" timeLoss="120.79" rerouteNo="1" devices="tripinfo_vehicle99 routing_vehicle99" vType="DEFAULT_VEHTYPE" speedFactor="1.10" vaporized=""/>
    <tripinfo id="vehicle105" depart="105.00" departLane="E6_0" departPos="5.10" departSpeed="0.00" departDelay="105.00" arrival="563.00" arrivalLane="-E11_0" arrivalPos="81.80" arrivalSpeed="7.97" duration="458.00" routeLength="3979.22" waitingTime="48.00" waitingCount="1" stopTime="68.00" timeLoss="118.76" rerouteNo="1" devices="tripinfo_vehicle105 routing_vehicle105" vType="DEFAULT_VEHTYPE" speedFactor="1.07" vaporized=""/>
    <tripinfo id="vehicle71" depart="141.00" departLane="E40_0" departPos="5.10" departSpeed="0.00" departDelay="141.00" arrival="568.00" arrivalLane="E9_1" arrivalPos="679.29" arrivalSpeed="12.51" duration="427.00" routeLength="3332.35" waitingTime="85.00" waitingCount="3" stopTime="0.00" timeLoss="176.68" rerouteNo="1" devices="tripinfo_vehicle71 routing_vehicle71" vType="evehicle" speedFactor="0.97" vaporized=""/>
    <tripinfo id="vehicle65" depart="128.00" departLane="E40_0" departPos="5.10" departSpeed="0.00" departDelay="128.00" arrival="569.00" arrivalLane="E9_0" arrivalPos="679.29" arrivalSpeed="10.97" duration="441.00" routeLength="3332.35" waitingTime="86.00" waitingCount="3" stopTime="0.00" timeLoss="164.26" rerouteNo="1" devices="tripinfo_vehicle65 routing_vehicle65" vType="evehicle" speedFactor="0.88" vaporized=""/>
    <tripinfo id="vehicle7" depart="12.00" departLane="E40_0" departPos="5.10" departSpeed="0.00" departDelay="12.00" arrival="572.00" arrivalLane="E9_0" arrivalPos="679.29" arrivalSpeed="11.24" duration="560.00" routeLength="4827.98" waitingTime="82.00" waitingCount="2" stopTime="0.00" timeLoss="163.64" rerouteNo="1" devices="tripinfo_vehicle7 routing_vehicle7" vType="DEFAULT_VEHTYPE" speedFactor="0.89" vaporized=""/>
    <tripinfo id="vehicle74" depart="147.00" departLane="E40_0" departPos="5.10" departSpeed="0.00" departDelay="147.00" arrival="572.00" arrivalLane="E9_1" arrivalPos="679.29" arrivalSpeed="12.37" duration="425.00" routeLength="3332.35" waitingTime="81.00" waitingCount="3" stopTime="0.00" timeLoss="169.95" rerouteNo="1" devices="tripinfo_vehicle74 routing_vehicle74" vType="evehicle" speedFactor="0.96" vaporized=""/>
    <tripinfo id="vehicle80" depart="159.00" departLane="E40_0" departPos="5.10" departSpeed="0.00" departDelay="159.00" arrival="574.00" arrivalLane="E9_1" arrivalPos="679.29" arrivalSpeed="13.50" duration="415.00" routeLength="3332.35" waitingTime="74.00" waitingCount="3" stopTime="0.00" timeLoss="178.95" rerouteNo="1" devices="tripinfo_vehicle80 routing_vehicle80" vType="evehicle" speedFactor="1.03" vaporized=""/>
    <tripinfo id="vehicle16" depart="30.00" departLane="E40_0" departPos="5.10" departSpeed="0.00" departDelay="30.00" arrival="579.00" arrivalLane="E9_0" arrivalPos="679.29" arrivalSpeed="12.09" duration="549.00" routeLength="4827.98" waitingTime="79.00" waitingCount="2" stopTime="0.00" timeLoss="149.56" rerouteNo="1" devices="tripinfo_vehicle16 routing_vehicle16" vType="DEFAULT_VEHTYPE" speedFactor="0.88" vaporized=""/>
    <tripinfo id="vehicle83" depart="165.00" departLane="E40_0" departPos="5.10" departSpeed="0.00" departDelay="165.00" arrival="580.00" arrivalLane="E9_0" arrivalPos="679.29" arrivalSpeed="13.31" duration="415.00" routeLength="3332.35" waitingTime="69.00" waitingCount="3" stopTime="0.00" timeLoss="161.86" rerouteNo="1" devices="tripinfo_vehicle83 routing_vehicle83" vType="evehicle" speedFactor="0.97" vaporized=""/>
    <tripinfo id="vehicle10" depart="18.00" departLane="E40_0" departPos="5.10" departSpeed="0.00" departDelay="18.00" arrival="581.00" arrivalLane="E9_1" arrivalPos="679.29" arrivalSpeed="14.36" duration="563.00" routeLength="4835.62" waitingTime="138.00" waitingCount="5" stopTime="0.00" timeLoss="240.74" rerouteNo="1" devices="tripinfo_vehicle10 routing_vehicle10" vType="DEFAULT_VEHTYPE" speedFactor="1.09" vaporized=""/>
    <tripinfo id="vehicle98" depart="195.00" departLane="E40_0" departPos="5.10" departSpeed="0.00" departDelay="195.00" arrival="581.00" arrivalLane="E9_0" arrivalPos="679.29" arrivalSpeed="13.70" duration="386.00" routeLength="3372.09" waitingTime="81.00" waitingCount="4" stopTime="0.00" timeLoss="165.64" rerouteNo="2" devices="tripinfo_vehicle98 routing_vehicle98" vType="evehicle" speedFactor="1.12" vaporized=""/>
    <tripinfo id="vehicle43" depart="84.00" departLane="E40_0" departPos="5.10" departSpeed="0.00" departDelay="84.00" arrival="585.00" arrivalLane="E9_1" arrivalPos="679.29" arrivalSpeed="14.31" duration="501.00" routeLength="4827.98" waitingTime="50.00" waitingCount="1" stopTime="0.00" timeLoss="162.62" rerouteNo="1" devices="tripinfo_vehicle43 routing_vehicle43" vType="DEFAULT_VEHTYPE" speedFactor="1.04" vaporized=""/>