<?xml version="1.0" encoding="UTF-8"?>

<!-- generated on 2022-11-17 16:55:11 by Eclipse SUMO GUI Version 1.14.0
<configuration xmlns:xsi="http://www.w3.org/2001/XMLSchema-instance" xsi:noNamespaceSchemaLocation="http://sumo.dlr.de/xsd/sumoConfiguration.xsd">

    <input>
        <net-file value="osm.net.xml"/>
        <route-files value="osm_pt.rou.xml,osm.passenger.trips.xml,osm.truck.trips.xml,osm.bus.trips.xml,osm.motorcycle.trips.xml"/>
        <additional-files value="osm.poly.xml,osm_stops.add.xml"/>
    </input>

    <output>
        <tripinfo-output value="tripinfo.xml"/>
    </output>

    <processing>
        <ignore-route-errors value="true"/>
    </processing>

    <routing>
        <device.rerouting.adaptation-steps value="18"/>
        <device.rerouting.adaptation-interval value="10"/>
    </routing>

    <report>
        <verbose value="true"/>
        <duration-log.statistics value="true"/>
        <no-step-log value="true"/>
    </report>

    <traci_server>
        <remote-port value="45275"/>
    </traci_server>

    <gui_only>
        <gui-settings-file value="osm.view.xml"/>
    </gui_only>

</configuration>
-->

<tripinfos xmlns:xsi="http://www.w3.org/2001/XMLSchema-instance" xsi:noNamespaceSchemaLocation="http://sumo.dlr.de/xsd/tripinfo_file.xsd">
    <tripinfo id="moto6" depart="40.00" departLane="-137729104#1_0" departPos="2.30" departSpeed="0.00" departDelay="0.94" arrival="76.00" arrivalLane="-137729106#1_0" arrivalPos="105.47" arrivalSpeed="14.62" duration="36.00" routeLength="415.02" waitingTime="0.00" waitingCount="0" stopTime="0.00" timeLoss="8.89" rerouteNo="1" devices="tripinfo_moto6 routing_moto6" vType="moto_motorcycle" speedFactor="1.18" vaporized=""/>
    <tripinfo id="veh10" depart="22.00" departLane="-540229751_0" departPos="5.10" departSpeed="0.00" departDelay="0.27" arrival="78.00" arrivalLane="-171143135_0" arrivalPos="146.93" arrivalSpeed="13.47" duration="56.00" routeLength="643.55" waitingTime="0.00" waitingCount="0" stopTime="0.00" timeLoss="7.86" rerouteNo="1" devices="tripinfo_veh10 routing_veh10" vType="veh_passenger" speedFactor="0.99" vaporized=""/>
    <tripinfo id="moto0" depart="0.00" departLane="171142742#2_0" departPos="0.69" departSpeed="0.00" departDelay="0.00" arrival="89.00" arrivalLane="-105885559#1_0" arrivalPos="72.70" arrivalSpeed="13.08" duration="89.00" routeLength="1065.25" waitingTime="25.00" waitingCount="1" stopTime="0.00" timeLoss="37.25" rerouteNo="1" devices="tripinfo_moto0 routing_moto0" vType="moto_motorcycle" speedFactor="1.03" vaporized=""/>
    <tripinfo id="veh9" depart="20.00" departLane="51202070#1_0" departPos="5.10" departSpeed="0.00" departDelay="0.45" arrival="92.00" arrivalLane="209446998#3_0" arrivalPos="84.56" arrivalSpeed="30.22" duration="72.00" routeLength="997.84" waitingTime="0.00" waitingCount="0" stopTime="0.00" timeLoss="18.74" rerouteNo="1" devices="tripinfo_veh9 routing_veh9" vType="veh_passenger" speedFactor="1.12" vaporized=""/>
    <tripinfo id="veh13" depart="29.00" departLane="51203053#7_0" departPos="5.10" departSpeed="0.00" departDelay="0.76" arrival="98.00" arrivalLane="137729167_0" arrivalPos="53.25" arrivalSpeed="13.07" duration="69.00" routeLength="1001.80" waitingTime="0.00" waitingCount="0" stopTime="0.00" timeLoss="14.43" rerouteNo="1" devices="tripinfo_veh13 routing_veh13" vType="veh_passenger" speedFactor="0.94" vaporized=""/>
    <tripinfo id="veh21" depart="46.00" departLane="-121662168#1_0" departPos="5.10" departSpeed="0.00" departDelay="0.38" arrival="98.00" arrivalLane="-362103129_0" arrivalPos="118.18" arrivalSpeed="11.25" duration="52.00" routeLength="467.46" waitingTime="0.00" waitingCount="0" stopTime="0.00" timeLoss="11.04" rerouteNo="1" devices="tripinfo_veh21 routing_veh21" vType="veh_passenger" speedFactor="0.87" vaporized=""/>
    <tripinfo id="veh26" depart="57.00" departLane="-209439854_0" departPos="5.10" departSpeed="12.94" departDelay="0.51" arrival="101.00" arrivalLane="360582696_0" arrivalPos="163.28" arrivalSpeed="12.79" duration="44.00" routeLength="478.31" waitingTime="0.00" waitingCount="0" stopTime="0.00" timeLoss="5.21" rerouteNo="1" devices="tripinfo_veh26 routing_veh26" vType="veh_passenger" speedFactor="0.93" vaporized=""/>
    <tripinfo id="moto7" depart="46.00" departLane="51203053#2_0" departPos="0.64" departSpeed="0.00" departDelay="0.43" arrival="105.00" arrivalLane="137729197#1_0" arrivalPos="65.04" arrivalSpeed="14.93" duration="59.00" routeLength="1029.48" waitingTime="0.00" waitingCount="0" stopTime="0.00" timeLoss="9.34" rerouteNo="1" devices="tripinfo_moto7 routing_moto7" vType="moto_motorcycle" speedFactor="1.08" vaporized=""/>
    <tripinfo id="veh2" depart="5.00" departLane="362101723#0_0" departPos="5.10" departSpeed="0.00" departDelay="0.65" arrival="106.00" arrivalLane="205706906#1_0" arrivalPos="27.62" arrivalSpeed="14.14" duration="101.00" routeLength="1940.85" waitingTime="0.00" waitingCount="0" stopTime="0.00" timeLoss="21.39" rerouteNo="1" devices="tripinfo_veh2 routing_veh2" vType="veh_passenger" speedFactor="1.05" vaporized=""/>
    <tripinfo id="veh30" depart="66.00" departLane="51203053#1_0" departPos="5.10" departSpeed="0.00" departDelay="0.82" arrival="108.00" arrivalLane="362753646_0" arrivalPos="229.80" arrivalSpeed="27.72" duration="42.00" routeLength="959.38" waitingTime="0.00" waitingCount="0" stopTime="0.00" timeLoss="6.77" rerouteNo="1" devices="tripinfo_veh30 routing_veh30" vType="veh_passenger" speedFactor="1.01" vaporized=""/>
    <tripinfo id="moto9" depart="59.00" departLane="307820912#1_0" departPos="2.30" departSpeed="0.00" departDelay="0.40" arrival="108.00" arrivalLane="-1103858919#1_1" arrivalPos="212.36" arrivalSpeed="30.78" duration="49.00" routeLength="818.79" waitingTime="0.00" waitingCount="0" stopTime="0.00" timeLoss="12.71" rerouteNo="1" devices="tripinfo_moto9 routing_moto9" vType="moto_motorcycle" speedFactor="1.14" vaporized=""/>
    <tripinfo id="veh4" depart="9.00" departLane="105464620#1_0" departPos="5.10" departSpeed="0.00" departDelay="0.31" arrival="116.00" arrivalLane="-107824325#1_0" arrivalPos="115.10" arrivalSpeed="12.13" duration="107.00" routeLength="1626.99" waitingTime="0.00" waitingCount="0" stopTime="0.00" timeLoss="20.53" rerouteNo="1" devices="tripinfo_veh4 routing_veh4" vType="veh_passenger" speedFactor="0.94" vaporized=""/>
    <tripinfo id="moto1" depart="7.00" departLane="-362103121_0" departPos="2.30" departSpeed="0.00" departDelay="0.49" arrival="117.00" arrivalLane="108487140#1_0" arrivalPos="91.14" arrivalSpeed="10.64" duration="110.00" routeLength="1181.26" waitingTime="0.00" waitingCount="0" stopTime="0.00" timeLoss="18.74" rerouteNo="1" devices="tripinfo_moto1 routing_moto1" vType="moto_motorcycle" speedFactor="0.83" vaporized=""/>
    <tripinfo id="moto2" depart="14.00" departLane="-105885554_0" departPos="2.30" departSpeed="0.00" departDelay="0.98" arrival="122.00" arrivalLane="-307820912#6_0" arrivalPos="73.21" arrivalSpeed="14.13" duration="108.00" routeLength="1296.27" waitingTime="2.00" waitingCount="1" stopTime="0.00" timeLoss="25.34" rerouteNo="1" devices="tripinfo_moto2 routing_moto2" vType="moto_motorcycle" speedFactor="1.07" vaporized=""/>
    <tripinfo id="veh14" depart="31.00" departLane="51202070#2_0" departPos="5.10" departSpeed="0.00" departDelay="0.58" arrival="123.00" arrivalLane="360582696_0" arrivalPos="163.28" arrivalSpeed="12.53" duration="92.00" routeLength="1001.94" waitingTime="0.00" waitingCount="0" stopTime="0.00" timeLoss="12.27" rerouteNo="1" devices="tripinfo_veh14 routing_veh14" vType="veh_passenger" speedFactor="0.94" vaporized=""/>
    <tripinfo id="veh0" depart="0.00" departLane="137729334_0" departPos="5.10" departSpeed="0.00" departDelay="0.00" arrival="125.00" arrivalLane="-105885559#0_0" arrivalPos="121.40" arrivalSpeed="13.82" duration="125.00" routeLength="2114.64" waitingTime="0.00" waitingCount="0" stopTime="0.00" timeLoss="26.89" rerouteNo="1" devices="tripinfo_veh0 routing_veh0" vType="veh_passenger" speedFactor="1.06" vaporized=""/>
    <tripinfo id="veh5" depart="11.00" departLane="-362103122_0" departPos="5.10" departSpeed="0.00" departDelay="0.14" arrival="130.00" arrivalLane="108487139#2_0" arrivalPos="1.99" arrivalSpeed="11.73" duration="119.00" routeLength="1474.95" waitingTime="1.00" waitingCount="1" stopTime="0.00" timeLoss="16.57" rerouteNo="1" devices="tripinfo_veh5 routing_veh5" vType="veh_passenger" speedFactor="0.86" vaporized=""/>
    <tripinfo id="truck10" depart="33.00" departLane="749618910_0" departPos="7.20" departSpeed="0.00" departDelay="0.41" arrival="130.00" arrivalLane="-51503445_0" arrivalPos="16.50" arrivalSpeed="5.97" duration="97.00" routeLength="1352.18" waitingTime="0.00" waitingCount="0" stopTime="0.00" timeLoss="26.28" rerouteNo="1" devices="tripinfo_truck10 routing_truck10" vType="truck_truck" speedFactor="0.98" vaporized=""/>
    <tripinfo id="moto10" depart="66.00" departLane="-121662234_0" departPos="2.30" departSpeed="0.00" departDelay="0.89" arrival="132.00" arrivalLane="-362103130_0" arrivalPos="26.97" arrivalSpeed="9.83" duration="66.00" routeLength="566.96" waitingTime="0.00" waitingCount="0" stopTime="0.00" timeLoss="15.97" rerouteNo="1" devices="tripinfo_moto10 routing_moto10" vType="moto_motorcycle" speedFactor="0.88" vaporized=""/>
    <tripinfo id="veh1" depart="3.00" departLane="-51202154_0" departPos="5.10" departSpeed="0.00" departDelay="0.83" arrival="140.00" arrivalLane="-362102612_0" arrivalPos="124.23" arrivalSpeed="12.60" duration="137.00" routeLength="2017.96" waitingTime="0.00" waitingCount="0" stopTime="0.00" timeLoss="22.78" rerouteNo="1" devices="tripinfo_veh1 routing_veh1" vType="veh_passenger" speedFactor="0.94" vaporized=""/>
    <tripinfo id="moto8" depart="53.00" departLane="-95141099#2_0" departPos="2.30" departSpeed="0.00" departDelay="0.92" arrival="140.00" arrivalLane="121662134_0" arrivalPos="29.07" arrivalSpeed="11.89" duration="87.00" routeLength="874.12" waitingTime="0.00" waitingCount="0" stopTime="0.00" timeLoss="13.36" rerouteNo="1" devices="tripinfo_moto8 routing_moto8" vType="moto_motorcycle" speedFactor="0.91" vaporized=""/>
    <tripinfo id="veh36" depart="79.00" departLane="547492323_0" departPos="5.10" departSpeed="0.00" departDelay="0.79" arrival="146.00" arrivalLane="105885526_0" arrivalPos="17.00" arrivalSpeed="28.39" duration="67.00" routeLength="780.96" waitingTime="0.00" waitingCount="0" stopTime="0.00" timeLoss="16.45" rerouteNo="1" devices="tripinfo_veh36 routing_veh36" vType="veh_passenger" speedFactor="1.10" vaporized=""/>
    <tripinfo id="truck12" depart="40.00" departLane="51203053#5_0" departPos="0.37" departSpeed="0.00" departDelay="0.89" arrival="146.00" arrivalLane="137729148#0_0" arrivalPos="13.47" arrivalSpeed="8.38" duration="106.00" routeLength="1779.04" waitingTime="0.00" waitingCount="0" stopTime="0.00" timeLoss="33.41" rerouteNo="1" devices="tripinfo_truck12 routing_truck12" vType="truck_truck" speedFactor="0.95" vaporized=""/>
    <tripinfo id="veh8" depart="18.00" departLane="51202070#5_0" departPos="5.10" departSpeed="0.00" departDelay="0.62" arrival="152.00" arrivalLane="-105861361#0_0" arrivalPos="60.92" arrivalSpeed="27.79" duration="134.00" routeLength="1617.85" waitingTime="9.00" waitingCount="3" stopTime="0.00" timeLoss="55.01" rerouteNo="1" devices="tripinfo_veh8 routing_veh8" vType="veh_passenger" speedFactor="1.05" vaporized=""/>
    <tripinfo id="truck7" depart="23.00" departLane="171143135_0" departPos="7.20" departSpeed="0.00" departDelay="0.19" arrival="155.00" arrivalLane="121169542#0_0" arrivalPos="22.09" arrivalSpeed="9.30" duration="132.00" routeLength="1557.12" waitingTime="0.00" waitingCount="0" stopTime="0.00" timeLoss="27.59" rerouteNo="1" devices="tripinfo_truck7 routing_truck7" vType="truck_truck" speedFactor="1.05" vaporized=""/>
    <tripinfo id="veh38" depart="83.00" departLane="121921782#0_0" departPos="5.10" departSpeed="0.00" departDelay="0.44" arrival="156.00" arrivalLane="-362758252_0" arrivalPos="237.55" arrivalSpeed="13.14" duration="73.00" routeLength="830.92" waitingTime="0.00" waitingCount="0" stopTime="0.00" timeLoss="12.70" rerouteNo="1" devices="tripinfo_veh38 routing_veh38" vType="veh_passenger" speedFactor="1.03" vaporized=""/>
    <tripinfo id="moto5" depart="33.00" departLane="-540229751_0" departPos="2.30" departSpeed="0.00" departDelay="0.45" arrival="158.00" arrivalLane="-205706907_0" arrivalPos="89.75" arrivalSpeed="13.06" duration="125.00" routeLength="1528.55" waitingTime="6.00" waitingCount="1" stopTime="0.00" timeLoss="41.93" rerouteNo="1" devices="tripinfo_moto5 routing_moto5" vType="moto_motorcycle" speedFactor="1.12" vaporized=""/>
    <tripinfo id="veh16" depart="35.00" departLane="-95141633#0_0" departPos="5.10" departSpeed="0.00" departDelay="0.24" arrival="162.00" arrivalLane="121662114_0" arrivalPos="200.92" arrivalSpeed="14.07" duration="127.00" routeLength="2286.88" waitingTime="3.00" waitingCount="1" stopTime="0.00" timeLoss="31.33" rerouteNo="1" devices="tripinfo_veh16 routing_veh16" vType="veh_passenger" speedFactor="1.02" vaporized=""/>
    <tripinfo id="veh6" depart="14.00" departLane="-105885528#4_1" departPos="5.10" departSpeed="0.00" departDelay="0.96" arrival="165.00" arrivalLane="-306056612_0" arrivalPos="543.39" arrivalSpeed="23.77" duration="151.00" routeLength="2366.59" waitingTime="0.00" waitingCount="0" stopTime="0.00" timeLoss="42.51" rerouteNo="1" devices="tripinfo_veh6 routing_veh6" vType="veh_passenger" speedFactor="1.09" vaporized=""/>
    <tripinfo id="veh53" depart="116.00" departLane="108526600_0" departPos="5.10" departSpeed="0.00" departDelay="0.85" arrival="165.00" arrivalLane="-209446998#0_0" arrivalPos="82.01" arrivalSpeed="23.16" duration="49.00" routeLength="507.20" waitingTime="0.00" waitingCount="0" stopTime="0.00" timeLoss="14.71" rerouteNo="1" devices="tripinfo_veh53 routing_veh53" vType="veh_passenger" speedFactor="1.00" vaporized=""/>
    <tripinfo id="moto15" depart="98.00" departLane="-50885124#2_0" departPos="2.30" departSpeed="0.00" departDelay="0.34" arrival="165.00" arrivalLane="-362754053#0_0" arrivalPos="136.78" arrivalSpeed="25.33" duration="67.00" routeLength="842.36" waitingTime="0.00" waitingCount="0" stopTime="0.00" timeLoss="15.60" rerouteNo="1" devices="tripinfo_moto15 routing_moto15" vType="moto_motorcycle" speedFactor="0.91" vaporized=""/>
    <tripinfo id="moto17" depart="114.00" departLane="-137729155#3_0" departPos="2.30" departSpeed="0.00" departDelay="3.32" arrival="167.00" arrivalLane="137729315#0_0" arrivalPos="40.50" arrivalSpeed="11.99" duration="53.00" routeLength="525.64" waitingTime="0.00" waitingCount="0" stopTime="0.00" timeLoss="12.06" rerouteNo="1" devices="tripinfo_moto17 routing_moto17" vType="moto_motorcycle" speedFactor="1.03" vaporized=""/>
    <tripinfo id="bus10" depart="66.00" departLane="749618910_0" departPos="12.10" departSpeed="0.00" departDelay="0.82" arrival="175.00" arrivalLane="-51503445_0" arrivalPos="16.50" arrivalSpeed="6.12" duration="109.00" routeLength="1347.28" waitingTime="7.00" waitingCount="1" stopTime="0.00" timeLoss="39.82" rerouteNo="1" devices="tripinfo_bus10 routing_bus10" vType="bus_bus" speedFactor="1.00" vaporized=""/>
    <tripinfo id="truck22" depart="72.00" departLane="-736768978#3_0" departPos="7.20" departSpeed="0.00" departDelay="0.30" arrival="176.00" arrivalLane="-307820912#0_0" arrivalPos="50.96" arrivalSpeed="11.72" duration="104.00" routeLength="1315.17" waitingTime="0.00" waitingCount="0" stopTime="0.00" timeLoss="29.44" rerouteNo="1" devices="tripinfo_truck22 routing_truck22" vType="truck_truck" speedFactor="1.05" vaporized=""/>
    <tripinfo id="truck24" depart="79.00" departLane="171143093_0" departPos="7.20" departSpeed="0.00" departDelay="0.79" arrival="176.00" arrivalLane="137729167_0" arrivalPos="53.25" arrivalSpeed="13.11" duration="97.00" routeLength="1071.99" waitingTime="7.00" waitingCount="1" stopTime="0.00" timeLoss="44.93" rerouteNo="1" devices="tripinfo_truck24 routing_truck24" vType="truck_truck" speedFactor="1.09" vaporized=""/>
    <tripinfo id="moto14" depart="92.00" departLane="547492325#2_0" departPos="2.30" departSpeed="0.00" departDelay="0.85" arrival="176.00" arrivalLane="105885528#4_0" arrivalPos="95.48" arrivalSpeed="27.18" duration="84.00" routeLength="1598.77" waitingTime="0.00" waitingCount="0" stopTime="0.00" timeLoss="18.50" rerouteNo="1" devices="tripinfo_moto14 routing_moto14" vType="moto_motorcycle" speedFactor="1.05" vaporized=""/>
    <tripinfo id="moto27" depart="176.00" departLane="-51503412#0_0" departPos="2.30" departSpeed="0.00" departDelay="0.21" arrival="181.00" arrivalLane="-121169544#4_0" arrivalPos="31.83" arrivalSpeed="16.75" duration="5.00" routeLength="46.86" waitingTime="0.00" waitingCount="0" stopTime="0.00" timeLoss="2.32" rerouteNo="0" devices="tripinfo_moto27 routing_moto27" vType="moto_motorcycle" speedFactor="1.03" vaporized=""/>
    <tripinfo id="bus12" depart="79.00" departLane="51203053#5_0" departPos="0.37" departSpeed="0.00" departDelay="0.79" arrival="182.00" arrivalLane="137729148#0_0" arrivalPos="13.47" arrivalSpeed="8.13" duration="103.00" routeLength="1779.04" waitingTime="0.00" waitingCount="0" stopTime="0.00" timeLoss="35.49" rerouteNo="1" devices="tripinfo_bus12 routing_bus12" vType="bus_bus" speedFactor="1.00" vaporized=""/>
    <tripinfo id="moto12" depart="79.00" departLane="-749618903_0" departPos="2.30" departSpeed="0.00" departDelay="0.87" arrival="182.00" arrivalLane="-362101722#1_0" arrivalPos="181.92" arrivalSpeed="10.37" duration="103.00" routeLength="1081.23" waitingTime="0.00" waitingCount="0" stopTime="0.00" timeLoss="22.21" rerouteNo="1" devices="tripinfo_moto12 routing_moto12" vType="moto_motorcycle" speedFactor="0.99" vaporized=""/>
    <tripinfo id="veh7" depart="16.00" departLane="152828493_0" departPos="5.10" departSpeed="0.00" departDelay="0.79" arrival="183.00" arrivalLane="121169544#4_0" arrivalPos="31.83" arrivalSpeed="18.02" duration="167.00" routeLength="2659.52" waitingTime="0.00" waitingCount="0" stopTime="0.00" timeLoss="50.91" rerouteNo="1" devices="tripinfo_veh7 routing_veh7" vType="veh_passenger" speedFactor="1.03" vaporized=""/>
    <tripinfo id="veh3" depart="7.00" departLane="52986063_0" departPos="5.10" departSpeed="12.31" departDelay="0.48" arrival="184.00" arrivalLane="-121662236_0" arrivalPos="202.22" arrivalSpeed="11.84" duration="177.00" routeLength="1961.06" waitingTime="0.00" waitingCount="0" stopTime="0.00" timeLoss="25.02" rerouteNo="1" devices="tripinfo_veh3 routing_veh3" vType="veh_passenger" speedFactor="0.89" vaporized=""/>
    <tripinfo id="truck8" depart="27.00" departLane="-362102053_0" departPos="7.20" departSpeed="0.00" departDelay="0.93" arrival="184.00" arrivalLane="137729106#1_0" arrivalPos="104.47" arrivalSpeed="13.83" duration="157.00" routeLength="1639.99" waitingTime="2.00" waitingCount="1" stopTime="0.00" timeLoss="60.46" rerouteNo="1" devices="tripinfo_truck8 routing_truck8" vType="truck_truck" speedFactor="1.03" vaporized=""/>
    <tripinfo id="bus7" depart="46.00" departLane="171143135_0" departPos="12.10" departSpeed="0.00" departDelay="0.38" arrival="184.00" arrivalLane="121169542#0_0" arrivalPos="22.09" arrivalSpeed="9.20" duration="138.00" routeLength="1552.22" waitingTime="0.00" waitingCount="0" stopTime="0.00" timeLoss="29.14" rerouteNo="1" devices="tripinfo_bus7 routing_bus7" vType="bus_bus" speedFactor="1.00" vaporized=""/>
    <tripinfo id="moto4" depart="27.00" departLane="51202070#5_0" departPos="2.30" departSpeed="0.00" departDelay="0.96" arrival="184.00" arrivalLane="-104690505_0" arrivalPos="190.09" arrivalSpeed="12.68" duration="157.00" routeLength="2201.71" waitingTime="5.00" waitingCount="1" stopTime="0.00" timeLoss="38.65" rerouteNo="1" devices="tripinfo_moto4 routing_moto4" vType="moto_motorcycle" speedFactor="1.06" vaporized=""/>
    <tripinfo id="veh37" depart="82.00" departLane="-50885124#4_0" departPos="5.10" departSpeed="0.00" departDelay="1.61" arrival="185.00" arrivalLane="-362753657_0" arrivalPos="80.56" arrivalSpeed="17.06" duration="103.00" routeLength="1474.16" waitingTime="0.00" waitingCount="0" stopTime="0.00" timeLoss="40.60" rerouteNo="1" devices="tripinfo_veh37 routing_veh37" vType="veh_passenger" speedFactor="0.90" vaporized=""/>
    <tripinfo id="truck13" depart="43.00" departLane="51202070#5_0" departPos="7.20" departSpeed="0.00" departDelay="0.63" arrival="185.00" arrivalLane="307820915#1_0" arrivalPos="11.57" arrivalSpeed="8.90" duration="142.00" routeLength="1796.16" waitingTime="3.00" waitingCount="1" stopTime="0.00" timeLoss="53.17" rerouteNo="1" devices="tripinfo_truck13 routing_truck13" vType="truck_truck" speedFactor="1.04" vaporized=""/>
    <tripinfo id="moto18" depart="122.00" departLane="50885124#1_0" departPos="2.30" departSpeed="0.00" departDelay="4.81" arrival="186.00" arrivalLane="1041474739#1_0" arrivalPos="299.89" arrivalSpeed="12.25" duration="64.00" routeLength="755.57" waitingTime="0.00" waitingCount="0" stopTime="0.00" timeLoss="12.29" rerouteNo="1" devices="tripinfo_moto18 routing_moto18" vType="moto_motorcycle" speedFactor="0.98" vaporized=""/>
    <tripinfo id="moto11" depart="72.00" departLane="-137729127#1_0" departPos="2.30" departSpeed="0.00" departDelay="0.38" arrival="187.00" arrivalLane="-51202070#5_0" arrivalPos="248.11" arrivalSpeed="12.96" duration="115.00" routeLength="1752.74" waitingTime="0.00" waitingCount="0" stopTime="0.00" timeLoss="25.43" rerouteNo="1" devices="tripinfo_moto11 routing_moto11" vType="moto_motorcycle" speedFactor="1.08" vaporized=""/>
    <tripinfo id="veh50" depart="109.00" departLane="-137729142#2_0" departPos="5.10" departSpeed="0.00" departDelay="0.37" arrival="192.00" arrivalLane="104690506_0" arrivalPos="85.13" arrivalSpeed="15.15" duration="83.00" routeLength="1004.93" waitingTime="3.00" waitingCount="1" stopTime="0.00" timeLoss="26.23" rerouteNo="1" devices="tripinfo_veh50 routing_veh50" vType="veh_passenger" speedFactor="1.17" vaporized=""/>
    <tripinfo id="truck5" depart="17.00" departLane="-362101859_0" departPos="7.20" departSpeed="0.00" departDelay="0.71" arrival="195.00" arrivalLane="107833668#4_0" arrivalPos="69.96" arrivalSpeed="11.86" duration="178.00" routeLength="2502.87" waitingTime="5.00" waitingCount="1" stopTime="0.00" timeLoss="50.38" rerouteNo="1" devices="tripinfo_truck5 routing_truck5" vType="truck_truck" speedFactor="0.95" vaporized=""/>
    <tripinfo id="veh22" depart="48.00" departLane="-137729106#2_0" departPos="5.10" departSpeed="0.00" departDelay="0.20" arrival="201.00" arrivalLane="-51202070#7_0" arrivalPos="52.66" arrivalSpeed="11.99" duration="153.00" routeLength="1631.35" waitingTime="0.00" waitingCount="0" stopTime="0.00" timeLoss="26.02" rerouteNo="1" devices="tripinfo_veh22 routing_veh22" vType="veh_passenger" speedFactor="0.92" vaporized=""/>
    <tripinfo id="veh33" depart="72.00" departLane="-362101859_0" departPos="5.10" departSpeed="0.00" departDelay="0.30" arrival="201.00" arrivalLane="81152479_0" arrivalPos="189.23" arrivalSpeed="13.12" duration="129.00" routeLength="1723.38" waitingTime="4.00" waitingCount="2" stopTime="0.00" timeLoss="52.91" rerouteNo="1" devices="tripinfo_veh33 routing_veh33" vType="veh_passenger" speedFactor="1.02" vaporized=""/>
    <tripinfo id="bus5" depart="33.00" departLane="-362101859_0" departPos="12.10" departSpeed="0.00" departDelay="0.41" arrival="204.00" arrivalLane="107833668#4_0" arrivalPos="69.96" arrivalSpeed="11.59" duration="171.00" routeLength="2497.97" waitingTime="0.00" waitingCount="0" stopTime="0.00" timeLoss="48.95" rerouteNo="1" devices="tripinfo_bus5 routing_bus5" vType="bus_bus" speedFactor="1.00" vaporized=""/>
    <tripinfo id="veh27" depart="59.00" departLane="-171143135_0" departPos="5.10" departSpeed="0.00" departDelay="0.34" arrival="205.00" arrivalLane="-736768977#0_0" arrivalPos="34.62" arrivalSpeed="15.23" duration="146.00" routeLength="2443.64" waitingTime="1.00" waitingCount="1" stopTime="0.00" timeLoss="50.81" rerouteNo="1" devices="tripinfo_veh27 routing_veh27" vType="veh_passenger" speedFactor="1.18" vaporized=""/>
    <tripinfo id="veh34" depart="74.00" departLane="51503439#0_1" departPos="5.10" departSpeed="0.00" departDelay="0.13" arrival="207.00" arrivalLane="-51503414#0_0" arrivalPos="256.34" arrivalSpeed="12.95" duration="133.00" routeLength="1884.20" waitingTime="0.00" waitingCount="0" stopTime="0.00" timeLoss="26.81" rerouteNo="1" devices="tripinfo_veh34 routing_veh34" vType="veh_passenger" speedFactor="0.97" vaporized=""/>
    <tripinfo id="truck17" depart="56.00" departLane="51503411_0" departPos="7.20" departSpeed="13.61" departDelay="0.60" arrival="207.00" arrivalLane="121921782#1_0" arrivalPos="126.91" arrivalSpeed="13.10" duration="151.00" routeLength="1833.31" waitingTime="0.00" waitingCount="0" stopTime="0.00" timeLoss="33.64" rerouteNo="1" devices="tripinfo_truck17 routing_truck17" vType="truck_truck" speedFactor="0.98" vaporized=""/>
    <tripinfo id="veh42" depart="92.00" departLane="-136734849_0" departPos="5.10" departSpeed="0.00" departDelay="0.75" arrival="210.00" arrivalLane="-108526597_0" arrivalPos="526.90" arrivalSpeed="14.44" duration="118.00" routeLength="1506.85" waitingTime="0.00" waitingCount="0" stopTime="0.00" timeLoss="12.87" rerouteNo="1" devices="tripinfo_veh42 routing_veh42" vType="veh_passenger" speedFactor="1.04" vaporized=""/>
    <tripinfo id="truck0" depart="0.00" departLane="137729417#1_0" departPos="7.20" departSpeed="0.00" departDelay="0.00" arrival="211.00" arrivalLane="-105885559#0_0" arrivalPos="121.40" arrivalSpeed="13.59" duration="211.00" routeLength="2586.50" waitingTime="0.00" waitingCount="0" stopTime="0.00" timeLoss="51.87" rerouteNo="1" devices="tripinfo_truck0 routing_truck0" vType="truck_truck" speedFactor="1.01" vaporized=""/>
    <tripinfo id="bus8" depart="53.00" departLane="-362102053_0" departPos="12.10" departSpeed="0.00" departDelay="0.86" arrival="214.00" arrivalLane="137729106#1_0" arrivalPos="104.47" arrivalSpeed="13.75" duration="161.00" routeLength="1635.09" waitingTime="2.00" waitingCount="1" stopTime="0.00" timeLoss="61.92" rerouteNo="1" devices="tripinfo_bus8 routing_bus8" vType="bus_bus" speedFactor="1.00" vaporized=""/>
    <tripinfo id="moto13" depart="85.00" departLane="51503439#0_1" departPos="2.30" departSpeed="0.00" departDelay="0.36" arrival="216.00" arrivalLane="-51503412#1_0" arrivalPos="23.82" arrivalSpeed="14.21" duration="131.00" routeLength="1990.11" waitingTime="0.00" waitingCount="0" stopTime="0.00" timeLoss="30.78" rerouteNo="1" devices="tripinfo_moto13 routing_moto13" vType="moto_motorcycle" speedFactor="1.13" vaporized=""/>
    <tripinfo id="veh29" depart="64.00" departLane="121662236_0" departPos="5.10" departSpeed="16.03" departDelay="0.99" arrival="217.00" arrivalLane="209439854_0" arrivalPos="41.55" arrivalSpeed="16.00" duration="153.00" routeLength="2656.05" waitingTime="0.00" waitingCount="0" stopTime="0.00" timeLoss="43.37" rerouteNo="1" devices="tripinfo_veh29 routing_veh29" vType="veh_passenger" speedFactor="1.15" vaporized=""/>
    <tripinfo id="veh24" depart="53.00" departLane="-81152478_0" departPos="5.10" departSpeed="0.00" departDelay="0.86" arrival="219.00" arrivalLane="-362101471#1_0" arrivalPos="93.59" arrivalSpeed="12.15" duration="166.00" routeLength="2103.70" waitingTime="0.00" waitingCount="0" stopTime="0.00" timeLoss="32.73" rerouteNo="1" devices="tripinfo_veh24 routing_veh24" vType="veh_passenger" speedFactor="0.95" vaporized=""/>
    <tripinfo id="veh25" depart="55.00" departLane="-50885124#7_0" departPos="5.10" departSpeed="0.00" departDelay="0.68" arrival="219.00" arrivalLane="736768978#5_0" arrivalPos="261.13" arrivalSpeed="15.66" duration="164.00" routeLength="2971.08" waitingTime="0.00" waitingCount="0" stopTime="0.00" timeLoss="37.01" rerouteNo="1" devices="tripinfo_veh25 routing_veh25" vType="veh_passenger" speedFactor="1.13" vaporized=""/>
    <tripinfo id="moto3" depart="20.00" departLane="-362103123_0" departPos="2.30" departSpeed="0.00" departDelay="0.47" arrival="223.00" arrivalLane="137729142#2_0" arrivalPos="177.17" arrivalSpeed="11.86" duration="203.00" routeLength="2809.39" waitingTime="7.00" waitingCount="2" stopTime="0.00" timeLoss="49.25" rerouteNo="1" devices="tripinfo_moto3 routing_moto3" vType="moto_motorcycle" speedFactor="0.93" vaporized=""/>
    <tripinfo id="truck2" depart="7.00" departLane="362101722#0_0" departPos="7.20" departSpeed="0.00" departDelay="0.48" arrival="225.00" arrivalLane="203342432#1_0" arrivalPos="72.62" arrivalSpeed="12.95" duration="218.00" routeLength="3198.03" waitingTime="0.00" waitingCount="0" stopTime="0.00" timeLoss="47.41" rerouteNo="1" devices="tripinfo_truck2 routing_truck2" vType="truck_truck" speedFactor="1.05" vaporized=""/>
    <tripinfo id="truck20" depart="70.00" departLane="-137729106#1_0" departPos="7.20" departSpeed="0.00" departDelay="4.82" arrival="225.00" arrivalLane="-50885124#7_0" arrivalPos="10.56" arrivalSpeed="6.29" duration="155.00" routeLength="2379.93" waitingTime="0.00" waitingCount="0" stopTime="0.00" timeLoss="58.89" rerouteNo="1" devices="tripinfo_truck20 routing_truck20" vType="truck_truck" speedFactor="1.05" vaporized=""/>
    <tripinfo id="bus0" depart="5.00" departLane="137729417#1_0" departPos="12.10" departSpeed="0.00" departDelay="5.00" arrival="227.00" arrivalLane="-105885559#0_0" arrivalPos="121.40" arrivalSpeed="13.69" duration="222.00" routeLength="2581.60" waitingTime="1.00" waitingCount="1" stopTime="0.00" timeLoss="62.03" rerouteNo="1" devices="tripinfo_bus0 routing_bus0" vType="bus_bus" speedFactor="1.00" vaporized=""/>