<?xml version="1.0" encoding="UTF-8"?>

<!-- generated on 2022-11-15 16:52:35 by Eclipse SUMO GUI Version 1.14.0
<configuration xmlns:xsi="http://www.w3.org/2001/XMLSchema-instance" xsi:noNamespaceSchemaLocation="http://sumo.dlr.de/xsd/sumoConfiguration.xsd">

    <input>
        <net-file value="rand.net.xml"/>
    </input>

    <output>
        <tripinfo-output value="tripinfo.xml"/>
    </output>

    <time>
        <begin value="0"/>
        <end value="10000"/>
    </time>

    <traci_server>
        <remote-port value="56895"/>
    </traci_server>

</configuration>
-->

<tripinfos xmlns:xsi="http://www.w3.org/2001/XMLSchema-instance" xsi:noNamespaceSchemaLocation="http://sumo.dlr.de/xsd/tripinfo_file.xsd">
    <tripinfo id="vehicle0" depart="0.00" departLane="-1000_0" departPos="5.10" departSpeed="0.00" departDelay="0.00" arrival="19.00" arrivalLane="-1000_0" arrivalPos="212.48" arrivalSpeed="14.42" duration="19.00" routeLength="207.38" waitingTime="0.00" waitingCount="0" stopTime="0.00" timeLoss="4.28" rerouteNo="0" devices="tripinfo_vehicle0" vType="DEFAULT_VEHTYPE" speedFactor="1.06" vaporized=""/>
    <tripinfo id="vehicle1" depart="3.00" departLane="-1000_0" departPos="5.10" departSpeed="0.00" departDelay="3.00" arrival="23.00" arrivalLane="-1000_0" arrivalPos="212.48" arrivalSpeed="12.05" duration="20.00" routeLength="207.38" waitingTime="0.00" waitingCount="0" stopTime="0.00" timeLoss="3.87" rerouteNo="0" devices="tripinfo_vehicle1" vType="DEFAULT_VEHTYPE" speedFactor="0.94" vaporized=""/>
    <tripinfo id="vehicle2" depart="6.00" departLane="-1000_0" departPos="5.10" departSpeed="0.00" departDelay="6.00" arrival="25.00" arrivalLane="-1000_0" arrivalPos="212.48" arrivalSpeed="12.96" duration="19.00" routeLength="207.38" waitingTime="0.00" waitingCount="0" stopTime="0.00" timeLoss="4.03" rerouteNo="0" devices="tripinfo_vehicle2" vType="DEFAULT_VEHTYPE" speedFactor="1.01" vaporized=""/>
    <tripinfo id="vehicle3" depart="9.00" departLane="-1000_0" departPos="5.10" departSpeed="0.00" departDelay="9.00" arrival="27.00" arrivalLane="-1000_0" arrivalPos="212.48" arrivalSpeed="13.78" duration="18.00" routeLength="207.38" waitingTime="0.00" waitingCount="0" stopTime="0.00" timeLoss="3.74" rerouteNo="0" devices="tripinfo_vehicle3" vType="DEFAULT_VEHTYPE" speedFactor="1.08" vaporized=""/>
    <tripinfo id="vehicle4" depart="12.00" departLane="-1000_0" departPos="5.10" departSpeed="0.00" departDelay="12.00" arrival="31.00" arrivalLane="-1000_0" arrivalPos="212.48" arrivalSpeed="13.13" duration="19.00" routeLength="207.38" waitingTime="0.00" waitingCount="0" stopTime="0.00" timeLoss="3.93" rerouteNo="0" devices="tripinfo_vehicle4" vType="DEFAULT_VEHTYPE" speedFactor="1.03" vaporized=""/>
    <tripinfo id="vehicle5" depart="15.00" departLane="-1000_0" departPos="5.10" departSpeed="0.00" departDelay="15.00" arrival="37.00" arrivalLane="-1000_0" arrivalPos="212.48" arrivalSpeed="10.92" duration="22.00" routeLength="207.38" waitingTime="0.00" waitingCount="0" stopTime="0.00" timeLoss="3.54" rerouteNo="0" devices="tripinfo_vehicle5" vType="DEFAULT_VEHTYPE" speedFactor="0.83" vaporized=""/>
    <tripinfo id="vehicle6" depart="18.00" departLane="-1000_0" departPos="5.10" departSpeed="0.00" departDelay="18.00" arrival="39.00" arrivalLane="-1000_0" arrivalPos="212.48" arrivalSpeed="13.32" duration="21.00" routeLength="207.38" waitingTime="0.00" waitingCount="0" stopTime="0.00" timeLoss="6.03" rerouteNo="0" devices="tripinfo_vehicle6" vType="DEFAULT_VEHTYPE" speedFactor="1.05" vaporized=""/>
    <tripinfo id="vehicle7" depart="21.00" departLane="-1000_0" departPos="5.10" departSpeed="0.00" departDelay="21.00" arrival="42.00" arrivalLane="-1000_0" arrivalPos="212.48" arrivalSpeed="11.22" duration="21.00" routeLength="207.38" waitingTime="0.00" waitingCount="0" stopTime="0.00" timeLoss="3.35" rerouteNo="0" devices="tripinfo_vehicle7" vType="DEFAULT_VEHTYPE" speedFactor="0.89" vaporized=""/>
    <tripinfo id="vehicle8" depart="23.00" departLane="-1000_0" departPos="5.10" departSpeed="0.00" departDelay="23.00" arrival="44.00" arrivalLane="-1000_0" arrivalPos="212.48" arrivalSpeed="12.68" duration="21.00" routeLength="207.38" waitingTime="0.00" waitingCount="0" stopTime="0.00" timeLoss="4.12" rerouteNo="0" devices="tripinfo_vehicle8" vType="DEFAULT_VEHTYPE" speedFactor="0.94" vaporized=""/>
    <tripinfo id="vehicle9" depart="26.00" departLane="-1000_0" departPos="5.10" departSpeed="0.00" departDelay="26.00" arrival="48.00" arrivalLane="-1000_0" arrivalPos="212.48" arrivalSpeed="11.20" duration="22.00" routeLength="207.38" waitingTime="0.00" waitingCount="0" stopTime="0.00" timeLoss="4.04" rerouteNo="0" devices="tripinfo_vehicle9" vType="DEFAULT_VEHTYPE" speedFactor="0.86" vaporized=""/>
    <tripinfo id="vehicle10" depart="30.00" departLane="-1000_0" departPos="5.10" departSpeed="0.00" departDelay="30.00" arrival="50.00" arrivalLane="-1000_0" arrivalPos="212.48" arrivalSpeed="14.98" duration="20.00" routeLength="207.38" waitingTime="0.00" waitingCount="0" stopTime="0.00" timeLoss="5.40" rerouteNo="0" devices="tripinfo_vehicle10" vType="DEFAULT_VEHTYPE" speedFactor="1.09" vaporized=""/>
    <tripinfo id="vehicle11" depart="33.00" departLane="-1000_0" departPos="5.10" departSpeed="0.00" departDelay="33.00" arrival="52.00" arrivalLane="-1000_0" arrivalPos="212.48" arrivalSpeed="14.03" duration="19.00" routeLength="207.38" waitingTime="0.00" waitingCount="0" stopTime="0.00" timeLoss="3.64" rerouteNo="0" devices="tripinfo_vehicle11" vType="DEFAULT_VEHTYPE" speedFactor="1.03" vaporized=""/>
    <tripinfo id="vehicle12" depart="36.00" departLane="-1000_0" departPos="5.10" departSpeed="0.00" departDelay="36.00" arrival="55.00" arrivalLane="-1000_0" arrivalPos="212.48" arrivalSpeed="13.88" duration="19.00" routeLength="207.38" waitingTime="0.00" waitingCount="0" stopTime="0.00" timeLoss="3.88" rerouteNo="0" devices="tripinfo_vehicle12" vType="DEFAULT_VEHTYPE" speedFactor="1.05" vaporized=""/>
    <tripinfo id="vehicle13" depart="39.00" departLane="-1000_0" departPos="5.10" departSpeed="0.00" departDelay="39.00" arrival="57.00" arrivalLane="-1000_0" arrivalPos="212.48" arrivalSpeed="15.17" duration="18.00" routeLength="207.38" waitingTime="0.00" waitingCount="0" stopTime="0.00" timeLoss="4.20" rerouteNo="0" devices="tripinfo_vehicle13" vType="DEFAULT_VEHTYPE" speedFactor="1.12" vaporized=""/>
    <tripinfo id="vehicle14" depart="42.00" departLane="-1000_0" departPos="5.10" departSpeed="0.00" departDelay="42.00" arrival="61.00" arrivalLane="-1000_0" arrivalPos="212.48" arrivalSpeed="13.04" duration="19.00" routeLength="207.38" waitingTime="0.00" waitingCount="0" stopTime="0.00" timeLoss="3.69" rerouteNo="0" devices="tripinfo_vehicle14" vType="DEFAULT_VEHTYPE" speedFactor="0.99" vaporized=""/>
    <tripinfo id="vehicle15" depart="45.00" departLane="-1000_0" departPos="5.10" departSpeed="0.00" departDelay="45.00" arrival="65.00" arrivalLane="-1000_0" arrivalPos="212.48" arrivalSpeed="12.72" duration="20.00" routeLength="207.38" waitingTime="0.00" waitingCount="0" stopTime="0.00" timeLoss="3.43" rerouteNo="0" devices="tripinfo_vehicle15" vType="DEFAULT_VEHTYPE" speedFactor="0.93" vaporized=""/>
    <tripinfo id="vehicle16" depart="48.00" departLane="-1000_0" departPos="5.10" departSpeed="0.00" departDelay="48.00" arrival="69.00" arrivalLane="-1000_0" arrivalPos="212.48" arrivalSpeed="11.86" duration="21.00" routeLength="207.38" waitingTime="0.00" waitingCount="0" stopTime="0.00" timeLoss="3.29" rerouteNo="0" devices="tripinfo_vehicle16" vType="DEFAULT_VEHTYPE" speedFactor="0.88" vaporized=""/>
    <tripinfo id="vehicle17" depart="51.00" departLane="-1000_0" departPos="5.10" departSpeed="0.00" departDelay="51.00" arrival="71.00" arrivalLane="-1000_0" arrivalPos="212.48" arrivalSpeed="12.24" duration="20.00" routeLength="207.38" waitingTime="0.00" waitingCount="0" stopTime="0.00" timeLoss="3.43" rerouteNo="0" devices="tripinfo_vehicle17" vType="DEFAULT_VEHTYPE" speedFactor="0.94" vaporized=""/>
    <tripinfo id="vehicle18" depart="54.00" departLane="-1000_0" departPos="5.10" departSpeed="0.00" departDelay="54.00" arrival="74.00" arrivalLane="-1000_0" arrivalPos="212.48" arrivalSpeed="12.40" duration="20.00" routeLength="207.38" waitingTime="0.00" waitingCount="0" stopTime="0.00" timeLoss="3.38" rerouteNo="0" devices="tripinfo_vehicle18" vType="DEFAULT_VEHTYPE" speedFactor="0.94" vaporized=""/>
    <tripinfo id="vehicle19" depart="57.00" departLane="-1000_0" departPos="5.10" departSpeed="0.00" departDelay="57.00" arrival="75.00" arrivalLane="-1000_0" arrivalPos="212.48" arrivalSpeed="13.82" duration="18.00" routeLength="207.38" waitingTime="0.00" waitingCount="0" stopTime="0.00" timeLoss="5.10" rerouteNo="0" devices="tripinfo_vehicle19" vType="DEFAULT_VEHTYPE" speedFactor="1.16" vaporized=""/>
    <tripinfo id="vehicle20" depart="60.00" departLane="-1000_0" departPos="5.10" departSpeed="0.00" departDelay="60.00" arrival="79.00" arrivalLane="-1000_0" arrivalPos="212.48" arrivalSpeed="13.72" duration="19.00" routeLength="207.38" waitingTime="0.00" waitingCount="0" stopTime="0.00" timeLoss="3.87" rerouteNo="0" devices="tripinfo_vehicle20" vType="DEFAULT_VEHTYPE" speedFactor="1.02" vaporized=""/>
    <tripinfo id="vehicle21" depart="63.00" departLane="-1000_0" departPos="5.10" departSpeed="0.00" departDelay="63.00" arrival="82.00" arrivalLane="-1000_0" arrivalPos="212.48" arrivalSpeed="12.94" duration="19.00" routeLength="207.38" waitingTime="0.00" waitingCount="0" stopTime="0.00" timeLoss="3.55" rerouteNo="0" devices="tripinfo_vehicle21" vType="DEFAULT_VEHTYPE" speedFactor="1.01" vaporized=""/>
    <tripinfo id="vehicle22" depart="66.00" departLane="-1000_0" departPos="5.10" departSpeed="0.00" departDelay="66.00" arrival="86.00" arrivalLane="-1000_0" arrivalPos="212.48" arrivalSpeed="13.45" duration="20.00" routeLength="207.38" waitingTime="0.00" waitingCount="0" stopTime="0.00" timeLoss="4.07" rerouteNo="0" devices="tripinfo_vehicle22" vType="DEFAULT_VEHTYPE" speedFactor="0.97" vaporized=""/>
    <tripinfo id="vehicle23" depart="69.00" departLane="-1000_0" departPos="5.10" departSpeed="0.00" departDelay="69.00" arrival="90.00" arrivalLane="-1000_0" arrivalPos="212.48" arrivalSpeed="11.15" duration="21.00" routeLength="207.38" waitingTime="0.00" waitingCount="0" stopTime="0.00" timeLoss="3.42" rerouteNo="0" devices="tripinfo_vehicle23" vType="DEFAULT_VEHTYPE" speedFactor="0.89" vaporized=""/>
    <tripinfo id="vehicle24" depart="72.00" departLane="-1000_0" departPos="5.10" departSpeed="0.00" departDelay="72.00" arrival="94.00" arrivalLane="-1000_0" arrivalPos="212.48" arrivalSpeed="10.85" duration="22.00" routeLength="207.38" waitingTime="0.00" waitingCount="0" stopTime="0.00" timeLoss="3.01" rerouteNo="0" devices="tripinfo_vehicle24" vType="DEFAULT_VEHTYPE" speedFactor="0.83" vaporized=""/>
    <tripinfo id="vehicle25" depart="75.00" departLane="-1000_0" departPos="5.10" departSpeed="0.00" departDelay="75.00" arrival="96.00" arrivalLane="-1000_0" arrivalPos="212.48" arrivalSpeed="11.05" duration="21.00" routeLength="207.38" waitingTime="0.00" waitingCount="0" stopTime="0.00" timeLoss="3.05" rerouteNo="0" devices="tripinfo_vehicle25" vType="DEFAULT_VEHTYPE" speedFactor="0.87" vaporized=""/>
    <tripinfo id="vehicle26" depart="78.00" departLane="-1000_0" departPos="5.10" departSpeed="0.00" departDelay="78.00" arrival="98.00" arrivalLane="-1000_0" arrivalPos="212.48" arrivalSpeed="11.79" duration="20.00" routeLength="207.38" waitingTime="0.00" waitingCount="0" stopTime="0.00" timeLoss="3.52" rerouteNo="0" devices="tripinfo_vehicle26" vType="DEFAULT_VEHTYPE" speedFactor="0.92" vaporized=""/>
    <tripinfo id="vehicle27" depart="81.00" departLane="-1000_0" departPos="5.10" departSpeed="0.00" departDelay="81.00" arrival="101.00" arrivalLane="-1000_0" arrivalPos="212.48" arrivalSpeed="12.46" duration="20.00" routeLength="207.38" waitingTime="0.00" waitingCount="0" stopTime="0.00" timeLoss="3.42" rerouteNo="0" devices="tripinfo_vehicle27" vType="DEFAULT_VEHTYPE" speedFactor="0.95" vaporized=""/>
    <tripinfo id="vehicle28" depart="84.00" departLane="-1000_0" departPos="5.10" departSpeed="0.00" departDelay="84.00" arrival="102.00" arrivalLane="-1000_0" arrivalPos="212.48" arrivalSpeed="15.04" duration="18.00" routeLength="207.38" waitingTime="0.00" waitingCount="0" stopTime="0.00" timeLoss="4.54" rerouteNo="0" devices="tripinfo_vehicle28" vType="DEFAULT_VEHTYPE" speedFactor="1.13" vaporized=""/>
    <tripinfo id="vehicle29" depart="87.00" departLane="-1000_0" departPos="5.10" departSpeed="0.00" departDelay="87.00" arrival="107.00" arrivalLane="-1000_0" arrivalPos="212.48" arrivalSpeed="11.88" duration="20.00" routeLength="207.38" waitingTime="0.00" waitingCount="0" stopTime="0.00" timeLoss="3.10" rerouteNo="0" devices="tripinfo_vehicle29" vType="DEFAULT_VEHTYPE" speedFactor="0.93" vaporized=""/>
    <tripinfo id="vehicle30" depart="90.00" departLane="-1000_0" departPos="5.10" departSpeed="0.00" departDelay="90.00" arrival="108.00" arrivalLane="-1000_0" arrivalPos="212.48" arrivalSpeed="15.03" duration="18.00" routeLength="207.38" waitingTime="0.00" waitingCount="0" stopTime="0.00" timeLoss="5.03" rerouteNo="0" devices="tripinfo_vehicle30" vType="DEFAULT_VEHTYPE" speedFactor="1.18" vaporized=""/>
    <tripinfo id="vehicle31" depart="93.00" departLane="-1000_0" departPos="5.10" departSpeed="0.00" departDelay="93.00" arrival="110.00" arrivalLane="-1000_0" arrivalPos="212.48" arrivalSpeed="15.92" duration="17.00" routeLength="207.38" waitingTime="0.00" waitingCount="0" stopTime="0.00" timeLoss="3.96" rerouteNo="0" devices="tripinfo_vehicle31" vType="DEFAULT_VEHTYPE" speedFactor="1.15" vaporized=""/>
    <tripinfo id="vehicle32" depart="96.00" departLane="-1000_0" departPos="5.10" departSpeed="0.00" departDelay="96.00" arrival="115.00" arrivalLane="-1000_0" arrivalPos="212.48" arrivalSpeed="13.55" duration="19.00" routeLength="207.38" waitingTime="0.00" waitingCount="0" stopTime="0.00" timeLoss="3.95" rerouteNo="0" devices="tripinfo_vehicle32" vType="DEFAULT_VEHTYPE" speedFactor="1.01" vaporized=""/>
    <tripinfo id="vehicle33" depart="99.00" departLane="-1000_0" departPos="5.10" departSpeed="0.00" departDelay="99.00" arrival="117.00" arrivalLane="-1000_0" arrivalPos="212.48" arrivalSpeed="15.57" duration="18.00" routeLength="207.38" waitingTime="0.00" waitingCount="0" stopTime="0.00" timeLoss="4.78" rerouteNo="0" devices="tripinfo_vehicle33" vType="DEFAULT_VEHTYPE" speedFactor="1.17" vaporized=""/>
    <tripinfo id="vehicle34" depart="102.00" departLane="-1000_0" departPos="5.10" departSpeed="0.00" departDelay="102.00" arrival="121.00" arrivalLane="-1000_0" arrivalPos="212.48" arrivalSpeed="13.60" duration="19.00" routeLength="207.38" waitingTime="0.00" waitingCount="0" stopTime="0.00" timeLoss="3.83" rerouteNo="0" devices="tripinfo_vehicle34" vType="DEFAULT_VEHTYPE" speedFactor="0.99" vaporized=""/>
    <tripinfo id="vehicle35" depart="105.00" departLane="-1000_0" departPos="5.10" departSpeed="0.00" departDelay="105.00" arrival="123.00" arrivalLane="-1000_0" arrivalPos="212.48" arrivalSpeed="13.38" duration="18.00" routeLength="207.38" waitingTime="0.00" waitingCount="0" stopTime="0.00" timeLoss="3.22" rerouteNo="0" devices="tripinfo_vehicle35" vType="DEFAULT_VEHTYPE" speedFactor="1.02" vaporized=""/>
    <tripinfo id="vehicle36" depart="108.00" departLane="-1000_0" departPos="5.10" departSpeed="0.00" departDelay="108.00" arrival="127.00" arrivalLane="-1000_0" arrivalPos="212.48" arrivalSpeed="12.30" duration="19.00" routeLength="207.38" waitingTime="0.00" waitingCount="0" stopTime="0.00" timeLoss="3.60" rerouteNo="0" devices="tripinfo_vehicle36" vType="DEFAULT_VEHTYPE" speedFactor="0.97" vaporized=""/>
    <tripinfo id="vehicle37" depart="111.00" departLane="-1000_0" departPos="5.10" departSpeed="0.00" departDelay="111.00" arrival="129.00" arrivalLane="-1000_0" arrivalPos="212.48" arrivalSpeed="15.14" duration="18.00" routeLength="207.38" waitingTime="0.00" waitingCount="0" stopTime="0.00" timeLoss="4.88" rerouteNo="0" devices="tripinfo_vehicle37" vType="DEFAULT_VEHTYPE" speedFactor="1.18" vaporized=""/>
    <tripinfo id="vehicle38" depart="114.00" departLane="-1000_0" departPos="5.10" departSpeed="0.00" departDelay="114.00" arrival="132.00" arrivalLane="-1000_0" arrivalPos="212.48" arrivalSpeed="15.20" duration="18.00" routeLength="207.38" waitingTime="0.00" waitingCount="0" stopTime="0.00" timeLoss="4.07" rerouteNo="0" devices="tripinfo_vehicle38" vType="DEFAULT_VEHTYPE" speedFactor="1.10" vaporized=""/>
    <tripinfo id="vehicle39" depart="117.00" departLane="-1000_0" departPos="5.10" departSpeed="0.00" departDelay="117.00" arrival="138.00" arrivalLane="-1000_0" arrivalPos="212.48" arrivalSpeed="12.07" duration="21.00" routeLength="207.38" waitingTime="0.00" waitingCount="0" stopTime="0.00" timeLoss="3.54" rerouteNo="0" devices="tripinfo_vehicle39" vType="DEFAULT_VEHTYPE" speedFactor="0.90" vaporized=""/>
    <tripinfo id="vehicle40" depart="120.00" departLane="-1000_0" departPos="5.10" departSpeed="0.00" departDelay="120.00" arrival="139.00" arrivalLane="-1000_0" arrivalPos="212.48" arrivalSpeed="13.43" duration="19.00" routeLength="207.38" waitingTime="0.00" waitingCount="0" stopTime="0.00" timeLoss="4.29" rerouteNo="0" devices="tripinfo_vehicle40" vType="DEFAULT_VEHTYPE" speedFactor="1.03" vaporized=""/>
    <tripinfo id="vehicle41" depart="123.00" departLane="-1000_0" departPos="5.10" departSpeed="0.00" departDelay="123.00" arrival="143.00" arrivalLane="-1000_0" arrivalPos="212.48" arrivalSpeed="13.05" duration="20.00" routeLength="207.38" waitingTime="0.00" waitingCount="0" stopTime="0.00" timeLoss="3.53" rerouteNo="0" devices="tripinfo_vehicle41" vType="DEFAULT_VEHTYPE" speedFactor="0.96" vaporized=""/>
    <tripinfo id="vehicle42" depart="126.00" departLane="-1000_0" departPos="5.10" departSpeed="0.00" departDelay="126.00" arrival="144.00" arrivalLane="-1000_0" arrivalPos="212.48" arrivalSpeed="14.60" duration="18.00" routeLength="207.38" waitingTime="0.00" waitingCount="0" stopTime="0.00" timeLoss="4.21" rerouteNo="0" devices="tripinfo_vehicle42" vType="DEFAULT_VEHTYPE" speedFactor="1.09" vaporized=""/>
    <tripinfo id="vehicle43" depart="129.00" departLane="-1000_0" departPos="5.10" departSpeed="0.00" departDelay="129.00" arrival="148.00" arrivalLane="-1000_0" arrivalPos="212.48" arrivalSpeed="14.17" duration="19.00" routeLength="207.38" waitingTime="0.00" waitingCount="0" stopTime="0.00" timeLoss="3.89" rerouteNo="0" devices="tripinfo_vehicle43" vType="DEFAULT_VEHTYPE" speedFactor="1.04" vaporized=""/>
    <tripinfo id="vehicle44" depart="132.00" departLane="-1000_0" departPos="5.10" departSpeed="0.00" departDelay="132.00" arrival="150.00" arrivalLane="-1000_0" arrivalPos="212.48" arrivalSpeed="13.99" duration="18.00" routeLength="207.38" waitingTime="0.00" waitingCount="0" stopTime="0.00" timeLoss="3.59" rerouteNo="0" devices="tripinfo_vehicle44" vType="DEFAULT_VEHTYPE" speedFactor="1.04" vaporized=""/>
    <tripinfo id="vehicle45" depart="135.00" departLane="-1000_0" departPos="5.10" departSpeed="0.00" departDelay="135.00" arrival="153.00" arrivalLane="-1000_0" arrivalPos="212.48" arrivalSpeed="15.04" duration="18.00" routeLength="207.38" waitingTime="0.00" waitingCount="0" stopTime="0.00" timeLoss="3.82" rerouteNo="0" devices="tripinfo_vehicle45" vType="DEFAULT_VEHTYPE" speedFactor="1.09" vaporized=""/>
    <tripinfo id="vehicle46" depart="138.00" departLane="-1000_0" departPos="5.10" departSpeed="0.00" departDelay="138.00" arrival="158.00" arrivalLane="-1000_0" arrivalPos="212.48" arrivalSpeed="13.06" duration="20.00" routeLength="207.38" waitingTime="0.00" waitingCount="0" stopTime="0.00" timeLoss="4.23" rerouteNo="0" devices="tripinfo_vehicle46" vType="DEFAULT_VEHTYPE" speedFactor="1.00" vaporized=""/>
    <tripinfo id="vehicle47" depart="141.00" departLane="-1000_0" departPos="5.10" departSpeed="0.00" departDelay="141.00" arrival="161.00" arrivalLane="-1000_0" arrivalPos="212.48" arrivalSpeed="12.25" duration="20.00" routeLength="207.38" waitingTime="0.00" waitingCount="0" stopTime="0.00" timeLoss="3.19" rerouteNo="0" devices="tripinfo_vehicle47" vType="DEFAULT_VEHTYPE" speedFactor="0.90" vaporized=""/>
    <tripinfo id="vehicle48" depart="144.00" departLane="-1000_0" departPos="5.10" departSpeed="0.00" departDelay="144.00" arrival="165.00" arrivalLane="-1000_0" arrivalPos="212.48" arrivalSpeed="11.63" duration="21.00" routeLength="207.38" waitingTime="0.00" waitingCount="0" stopTime="0.00" timeLoss="3.14" rerouteNo="0" devices="tripinfo_vehicle48" vType="DEFAULT_VEHTYPE" speedFactor="0.88" vaporized=""/>
    <tripinfo id="vehicle49" depart="147.00" departLane="-1000_0" departPos="5.10" departSpeed="0.00" departDelay="147.00" arrival="169.00" arrivalLane="-1000_0" arrivalPos="212.48" arrivalSpeed="11.78" duration="22.00" routeLength="207.38" waitingTime="0.00" waitingCount="0" stopTime="0.00" timeLoss="3.86" rerouteNo="0" devices="tripinfo_vehicle49" vType="DEFAULT_VEHTYPE" speedFactor="0.85" vaporized=""/>
</tripinfos>
